
     Program PWSCF v.6.7MaX starts on  2Aug2021 at 17:20:56 

     This program is part of the open-source Quantum ESPRESSO suite
     for quantum simulation of materials; please cite
         "P. Giannozzi et al., J. Phys.:Condens. Matter 21 395502 (2009);
         "P. Giannozzi et al., J. Phys.:Condens. Matter 29 465901 (2017);
          URL http://www.quantum-espresso.org", 
     in publications or presentations arising from this work. More details at
     http://www.quantum-espresso.org/quote

     Parallel version (MPI), running on    48 processors

     MPI processes distributed on     2 nodes
     K-points division:     npool     =       2
     R & G space division:  proc/nbgrp/npool/nimage =      24
     Waiting for input...
     Reading input from standard input
Warning: card &CELL ignored
Warning: card CELL_DYNAMICS             = 'BFGS', ignored
Warning: card PRESS                     = '0.0', ignored
Warning: card PRESS_CONV_THR            = '0.5', ignored
Warning: card / ignored
     Message from routine read_cards :
     DEPRECATED: no units specified in CELL_PARAMETERS card

     Current dimensions of program PWSCF are:
     Max number of different atomic species (ntypx) = 10
     Max number of k-points (npk) =  40000
     Max angular momentum in pseudopotentials (lmaxx) =  3
     Message from routine cell_base_init:
     DEPRECATED: use true lattice parameter, not A to a.u. conversion factor
 end of file reached, closing tag not found
     file Er.pbe-spdn-kjpaw_psl.1.0.0.UPF: wavefunction(s)  6S 5D renormalized
     file Br.pbe-dn-kjpaw_psl.1.0.0.UPF: wavefunction(s)  4S 4P 3D renormalized

     Subspace diagonalization in iterative solution of the eigenvalue problem:
     a serial algorithm will be used

     Found symmetry operation: I + ( -0.5000 -0.5000  0.0000)
     This is a supercell, fractional translations are disabled
     Message from routine setup:
     using ibrav=0 with symmetry is DISCOURAGED, use correct ibrav instead
 
     Parallelization info
     --------------------
     sticks:   dense  smooth     PW     G-vecs:    dense   smooth      PW
     Min         395     316     86                20762    14856    2144
     Max         396     317     87                20766    14859    2149
     Sum        9495    7603   2085               498349   356595   51527
 


     bravais-lattice index     =            0
     lattice parameter (alat)  =       1.8897  a.u.
     unit-cell volume          =    3688.3023 (a.u.)^3
     number of atoms/cell      =           20
     number of atomic types    =            3
     number of electrons       =       244.00
     number of Kohn-Sham states=          146
     kinetic-energy cutoff     =      80.0000  Ry
     charge density cutoff     =     400.0000  Ry
     scf convergence threshold =      1.0E-08
     mixing beta               =       0.4000
     number of iterations used =            8  plain     mixing
     Exchange-correlation= SLA  PW   PBX  PBC
                           (   1   4   3   4   0   0   0)

     celldm(1)=   1.889726  celldm(2)=   0.000000  celldm(3)=   0.000000
     celldm(4)=   0.000000  celldm(5)=   0.000000  celldm(6)=   0.000000

     crystal axes: (cart. coord. in units of alat)
               a(1) = (   6.967356   0.000000   0.000000 )  
               a(2) = (   0.000000  11.998880   0.000000 )  
               a(3) = (  -2.324723   0.000000   6.537643 )  

     reciprocal axes: (cart. coord. in units 2 pi/alat)
               b(1) = (  0.143526  0.000000  0.051037 )  
               b(2) = (  0.000000  0.083341  0.000000 )  
               b(3) = (  0.000000  0.000000  0.152960 )  


     PseudoPot. # 1 for Li read from file:
     /central/groups/SeeGroup/qe_pseudopotentials/Li.pbe-s-kjpaw_psl.1.0.0.UPF
     MD5 check sum: cc502796ee09d8b62ac346ee26e59beb
     Pseudo is Projector augmented-wave, Zval =  3.0
     Generated using &quot;atomic&quot; code by A. Dal Corso  v.6.3
     Shape of augmentation charge: PSQ
     Using radial grid of 1017 points,  4 beta functions with: 
                l(1) =   0
                l(2) =   0
                l(3) =   1
                l(4) =   1
     Q(r) pseudized with 0 coefficients 


     PseudoPot. # 2 for Er read from file:
     /central/groups/SeeGroup/qe_pseudopotentials/Er.pbe-spdn-kjpaw_psl.1.0.0.UPF
     MD5 check sum: a923254af2aef992cff3e18bc73f2922
     Pseudo is Projector augmented-wave + core cor, Zval = 11.0
     Generated using &quot;atomic&quot; code by A. Dal Corso  v.6.2.2
     Shape of augmentation charge: PSQ
     Using radial grid of 1267 points,  6 beta functions with: 
                l(1) =   0
                l(2) =   0
                l(3) =   1
                l(4) =   1
                l(5) =   2
                l(6) =   2
     Q(r) pseudized with 0 coefficients 


     PseudoPot. # 3 for Br read from file:
     /central/groups/SeeGroup/qe_pseudopotentials/Br.pbe-dn-kjpaw_psl.1.0.0.UPF
     MD5 check sum: 4ca4ebabfd6065c7bb707b2ebe99e9b3
     Pseudo is Projector augmented-wave + core cor, Zval = 17.0
     Generated using &quot;atomic&quot; code by A. Dal Corso  v.6.3
     Shape of augmentation charge: PSQ
     Using radial grid of 1213 points,  6 beta functions with: 
                l(1) =   0
                l(2) =   0
                l(3) =   1
                l(4) =   1
                l(5) =   2
                l(6) =   2
     Q(r) pseudized with 0 coefficients 


     atomic species   valence    mass     pseudopotential
        Li             3.00     6.94100     Li( 1.00)
        Er            11.00   167.25900     Er( 1.00)
        Br            17.00    79.90400     Br( 1.00)

      2 Sym. Ops. (no inversion) found



   Cartesian axes

     site n.     atom                  positions (alat units)
         1           Li  tau(   1) = (   3.4836780   9.9564306   0.0000000  )
         2           Li  tau(   2) = (   3.4836780   2.0173957   0.0000000  )
         3           Li  tau(   3) = (   2.3213165   7.8846440   3.2688215  )
         4           Li  tau(   4) = (   0.0000000   3.9569906   0.0000000  )
         5           Li  tau(   5) = (   0.0000000   8.0168357   0.0000000  )
         6           Li  tau(   6) = (  -1.1623615   1.8852040   3.2688215  )
         7           Er  tau(   7) = (   3.4836780   5.9699947   0.0000000  )
         8           Er  tau(   8) = (   0.0000000  11.9694347   0.0000000  )
         9           Br  tau(   9) = (   3.4471523   9.9581465   5.0158758  )
        10           Br  tau(  10) = (   3.5847273   1.9854607   4.9258002  )
        11           Br  tau(  11) = (   1.0579057   1.9854607   1.6118428  )
        12           Br  tau(  12) = (   1.1954807   9.9581465   1.5217672  )
        13           Br  tau(  13) = (  -0.0150075   0.0698395   4.9769442  )
        14           Br  tau(  14) = (   4.6576405   0.0698395   1.5606988  )
        15           Br  tau(  15) = (  -0.0365257   3.9587065   5.0158758  )
        16           Br  tau(  16) = (   0.1010493   7.9849007   4.9258002  )
        17           Br  tau(  17) = (   4.5415837   7.9849007   1.6118428  )
        18           Br  tau(  18) = (   4.6791587   3.9587065   1.5217672  )
        19           Br  tau(  19) = (   3.4686705   6.0692795   4.9769442  )
        20           Br  tau(  20) = (   1.1739625   6.0692795   1.5606988  )

     number of k points=    20  Fermi-Dirac smearing, width (Ry)=  0.0070
                       cart. coord. in units 2pi/alat
        k(    1) = (   0.0000000   0.0000000   0.0000000), wk =   0.0625000
        k(    2) = (   0.0000000   0.0000000   0.0382401), wk =   0.1250000
        k(    3) = (   0.0000000   0.0000000  -0.0764802), wk =   0.0625000
        k(    4) = (   0.0000000  -0.0416706   0.0000000), wk =   0.0625000
        k(    5) = (   0.0000000  -0.0416706   0.0382401), wk =   0.1250000
        k(    6) = (   0.0000000  -0.0416706  -0.0764802), wk =   0.0625000
        k(    7) = (   0.0358816   0.0000000   0.0127592), wk =   0.1250000
        k(    8) = (   0.0358816   0.0000000   0.0509992), wk =   0.1250000
        k(    9) = (   0.0358816   0.0000000  -0.0637210), wk =   0.1250000
        k(   10) = (   0.0358816   0.0000000  -0.0254809), wk =   0.1250000
        k(   11) = (   0.0358816  -0.0416706   0.0127592), wk =   0.1250000
        k(   12) = (   0.0358816  -0.0416706   0.0509992), wk =   0.1250000
        k(   13) = (   0.0358816  -0.0416706  -0.0637210), wk =   0.1250000
        k(   14) = (   0.0358816  -0.0416706  -0.0254809), wk =   0.1250000
        k(   15) = (  -0.0717632   0.0000000  -0.0255183), wk =   0.0625000
        k(   16) = (  -0.0717632   0.0000000   0.0127218), wk =   0.1250000
        k(   17) = (  -0.0717632   0.0000000  -0.1019985), wk =   0.0625000
        k(   18) = (  -0.0717632  -0.0416706  -0.0255183), wk =   0.0625000
        k(   19) = (  -0.0717632  -0.0416706   0.0127218), wk =   0.1250000
        k(   20) = (  -0.0717632  -0.0416706  -0.1019985), wk =   0.0625000

     Dense  grid:   498349 G-vectors     FFT dimensions: (  90, 150,  90)

     Smooth grid:   356595 G-vectors     FFT dimensions: (  75, 135,  75)

     Estimated max dynamical RAM per process >     107.41 MB

     Estimated total dynamical RAM >       5.03 GB

     Initial potential from superposition of free atoms

     starting charge  243.93496, renormalised to  244.00000
     Starting wfcs are  164 randomized atomic wfcs
     Checking if some PAW data can be deallocated... 

     total cpu time spent up to now is        5.9 secs

     Self-consistent Calculation

     iteration #  1     ecut=    80.00 Ry     beta= 0.40
     Davidson diagonalization with overlap
     ethr =  1.00E-02,  avg # of iterations =  5.1

     Threshold (ethr) on eigenvalues was too large:
     Diagonalizing with lowered threshold

     Davidson diagonalization with overlap
     ethr =  1.16E-04,  avg # of iterations =  9.1

     total cpu time spent up to now is       30.8 secs

     total energy              =   -6740.51663769 Ry
     estimated scf accuracy    <       0.28203706 Ry

     iteration #  2     ecut=    80.00 Ry     beta= 0.40
     Davidson diagonalization with overlap
     ethr =  1.16E-04,  avg # of iterations =  2.0

     total cpu time spent up to now is       39.8 secs

     total energy              =   -6740.54252629 Ry
     estimated scf accuracy    <       0.03908467 Ry

     iteration #  3     ecut=    80.00 Ry     beta= 0.40
     Davidson diagonalization with overlap
     ethr =  1.60E-05,  avg # of iterations =  6.4

     total cpu time spent up to now is       51.9 secs

     total energy              =   -6740.54759160 Ry
     estimated scf accuracy    <       0.00547423 Ry

     iteration #  4     ecut=    80.00 Ry     beta= 0.40
     Davidson diagonalization with overlap
     ethr =  2.24E-06,  avg # of iterations =  8.0

     total cpu time spent up to now is       64.9 secs

     total energy              =   -6740.54826137 Ry
     estimated scf accuracy    <       0.00074955 Ry

     iteration #  5     ecut=    80.00 Ry     beta= 0.40
     Davidson diagonalization with overlap
     ethr =  3.07E-07,  avg # of iterations =  2.0

     total cpu time spent up to now is       73.6 secs

     total energy              =   -6740.54838804 Ry
     estimated scf accuracy    <       0.00016665 Ry

     iteration #  6     ecut=    80.00 Ry     beta= 0.40
     Davidson diagonalization with overlap
     ethr =  6.83E-08,  avg # of iterations =  2.0

     total cpu time spent up to now is       82.3 secs

     total energy              =   -6740.54840445 Ry
     estimated scf accuracy    <       0.00003319 Ry

     iteration #  7     ecut=    80.00 Ry     beta= 0.40
     Davidson diagonalization with overlap
     ethr =  1.36E-08,  avg # of iterations =  2.0

     total cpu time spent up to now is       91.0 secs

     total energy              =   -6740.54840607 Ry
     estimated scf accuracy    <       0.00000099 Ry

     iteration #  8     ecut=    80.00 Ry     beta= 0.40
     Davidson diagonalization with overlap
     ethr =  4.05E-10,  avg # of iterations =  2.0

     total cpu time spent up to now is      100.5 secs

     total energy              =   -6740.54840619 Ry
     estimated scf accuracy    <       0.00000012 Ry

     iteration #  9     ecut=    80.00 Ry     beta= 0.40
     Davidson diagonalization with overlap
     ethr =  4.98E-11,  avg # of iterations =  2.0

     total cpu time spent up to now is      109.3 secs

     End of self-consistent calculation

          k = 0.0000 0.0000 0.0000 ( 44625 PWs)   bands (ev):

   -56.2780 -56.2780 -56.2780 -56.2779 -56.2751 -56.2751 -56.2750 -56.2750
   -56.2603 -56.2603 -56.2602 -56.2602 -56.2551 -56.2551 -56.2551 -56.2550
   -56.2527 -56.2527 -56.2527 -56.2526 -56.2393 -56.2392 -56.2392 -56.2392
   -56.2272 -56.2271 -56.2271 -56.2271 -56.2235 -56.2235 -56.2235 -56.2235
   -56.2124 -56.2124 -56.2124 -56.2124 -56.2095 -56.2095 -56.2095 -56.2095
   -56.1943 -56.1942 -56.1942 -56.1942 -56.1933 -56.1933 -56.1933 -56.1933
   -56.1923 -56.1923 -56.1923 -56.1923 -56.1862 -56.1862 -56.1862 -56.1862
   -56.1832 -56.1832 -56.1832 -56.1832 -46.9314 -46.9314 -42.0575 -42.0575
   -41.7891 -41.7891 -41.7606 -41.7606 -20.7595 -20.7595 -20.7542 -20.7541
   -20.7541 -20.7539 -10.7217 -10.5407 -10.3947 -10.2883 -10.2785 -10.2692
   -10.2366 -10.2319 -10.2244 -10.1600 -10.1546 -10.1288  -0.1679  -0.1589
     0.2184   0.2447   0.2635   0.4077   0.4553   0.6223   0.6727   0.7415
     0.8625   0.8628   0.8733   0.9984   1.1254   1.2414   1.2643   1.2680
     1.2732   1.4829   1.5254   1.6952   1.7403   1.9382   1.9806   2.0170
     2.0554   2.0731   2.1872   2.2407   2.3323   2.4623   2.5282   2.5283
     2.5731   2.5793   7.0476   7.3039   7.4454   7.4663   7.4672   7.5188
     7.5481   8.7251   8.7445   8.8090   9.1082   9.1643   9.3655   9.3992
     9.4783   9.7253   9.9188  10.3126  10.3258  10.3776  10.6747  10.8622
    10.9496  11.1012

          k = 0.0000 0.0000 0.0382 ( 44594 PWs)   bands (ev):

   -56.2780 -56.2780 -56.2780 -56.2779 -56.2751 -56.2751 -56.2750 -56.2750
   -56.2603 -56.2603 -56.2602 -56.2602 -56.2551 -56.2551 -56.2550 -56.2550
   -56.2527 -56.2527 -56.2527 -56.2526 -56.2393 -56.2392 -56.2392 -56.2392
   -56.2271 -56.2271 -56.2271 -56.2271 -56.2235 -56.2235 -56.2235 -56.2235
   -56.2124 -56.2124 -56.2124 -56.2123 -56.2095 -56.2095 -56.2095 -56.2095
   -56.1943 -56.1942 -56.1942 -56.1942 -56.1933 -56.1933 -56.1933 -56.1932
   -56.1923 -56.1923 -56.1923 -56.1922 -56.1862 -56.1862 -56.1862 -56.1861
   -56.1832 -56.1832 -56.1832 -56.1832 -46.9314 -46.9314 -42.0575 -42.0575
   -41.7891 -41.7891 -41.7606 -41.7606 -20.7595 -20.7595 -20.7542 -20.7542
   -20.7541 -20.7539 -10.6757 -10.5060 -10.3755 -10.3105 -10.2926 -10.2870
   -10.2560 -10.2407 -10.2225 -10.1773 -10.1658 -10.1329  -0.0735   0.0188
     0.2533   0.2915   0.3284   0.3700   0.4413   0.5137   0.6818   0.8182
     0.8239   0.9415   0.9506   1.0454   1.0736   1.1992   1.2779   1.3102
     1.4263   1.4436   1.4496   1.6097   1.7852   1.9431   1.9538   2.0226
     2.0519   2.0975   2.1308   2.1646   2.2482   2.2506   2.3218   2.4587
     2.4940   2.5029   7.1694   7.2673   7.3121   7.3850   7.4920   7.5470
     8.0648   8.8018   8.8547   8.8828   9.1502   9.3139   9.3398   9.5178
     9.7868   9.8685  10.1278  10.2143  10.3923  10.6693  10.7041  10.8533
    10.9583  10.9670

          k = 0.0000 0.0000-0.0765 ( 44536 PWs)   bands (ev):

   -56.2780 -56.2780 -56.2779 -56.2779 -56.2751 -56.2751 -56.2750 -56.2750
   -56.2603 -56.2603 -56.2602 -56.2602 -56.2551 -56.2550 -56.2550 -56.2550
   -56.2527 -56.2527 -56.2527 -56.2526 -56.2392 -56.2392 -56.2392 -56.2392
   -56.2271 -56.2271 -56.2271 -56.2271 -56.2235 -56.2235 -56.2235 -56.2234
   -56.2124 -56.2124 -56.2124 -56.2123 -56.2095 -56.2095 -56.2094 -56.2094
   -56.1942 -56.1942 -56.1942 -56.1942 -56.1933 -56.1933 -56.1932 -56.1932
   -56.1923 -56.1923 -56.1922 -56.1922 -56.1862 -56.1862 -56.1861 -56.1861
   -56.1832 -56.1832 -56.1832 -56.1832 -46.9314 -46.9314 -42.0575 -42.0575
   -41.7891 -41.7890 -41.7606 -41.7606 -20.7596 -20.7595 -20.7542 -20.7541
   -20.7541 -20.7539 -10.6105 -10.4578 -10.3798 -10.3445 -10.3195 -10.2848
   -10.2726 -10.2578 -10.2406 -10.1828 -10.1631 -10.1420   0.0253   0.1837
     0.1914   0.2492   0.3944   0.4984   0.5831   0.6740   0.6860   0.7350
     0.7829   0.9494   0.9907   1.0450   1.0951   1.2088   1.2709   1.3605
     1.3886   1.4545   1.4664   1.5324   1.6692   1.7955   1.8870   1.8999
     1.9538   2.0699   2.1219   2.1332   2.1441   2.2877   2.2986   2.3348
     2.4570   2.4599   7.1911   7.2157   7.2506   7.3273   7.4875   7.5781
     8.6405   8.7944   8.9087   9.0796   9.1938   9.4471   9.8912   9.9510
     9.9597  10.0393  10.0425  10.1883  10.2517  10.3073  10.7765  10.8108
    10.9775  10.9882

          k = 0.0000-0.0417 0.0000 ( 44596 PWs)   bands (ev):

   -56.2780 -56.2780 -56.2780 -56.2779 -56.2751 -56.2751 -56.2750 -56.2750
   -56.2603 -56.2603 -56.2602 -56.2602 -56.2551 -56.2551 -56.2551 -56.2550
   -56.2527 -56.2527 -56.2527 -56.2527 -56.2393 -56.2392 -56.2392 -56.2392
   -56.2272 -56.2271 -56.2271 -56.2271 -56.2235 -56.2235 -56.2235 -56.2235
   -56.2124 -56.2124 -56.2124 -56.2124 -56.2095 -56.2095 -56.2095 -56.2095
   -56.1943 -56.1942 -56.1942 -56.1942 -56.1933 -56.1933 -56.1933 -56.1933
   -56.1923 -56.1923 -56.1923 -56.1923 -56.1862 -56.1862 -56.1862 -56.1862
   -56.1832 -56.1832 -56.1832 -56.1832 -46.9314 -46.9314 -42.0575 -42.0575
   -41.7891 -41.7891 -41.7606 -41.7606 -20.7595 -20.7595 -20.7541 -20.7541
   -20.7540 -20.7540 -10.6536 -10.6536 -10.3174 -10.3174 -10.2894 -10.2894
   -10.1940 -10.1940 -10.1820 -10.1820 -10.1783 -10.1783  -0.1229  -0.1229
     0.1046   0.1046   0.3378   0.3378   0.5104   0.5104   0.7131   0.7131
     0.8488   0.8488   1.0662   1.0662   1.1410   1.1410   1.3237   1.3237
     1.4263   1.4263   1.7545   1.7545   1.8676   1.8676   1.9395   1.9395
     1.9756   1.9756   2.2788   2.2788   2.3262   2.3263   2.4125   2.4125
     2.5466   2.5466   7.2711   7.2711   7.4561   7.4561   7.4806   7.4806
     8.1072   8.1073   8.8897   8.8897   9.0978   9.0978   9.3652   9.3652
     9.5770   9.5771  10.1339  10.1340  10.2470  10.2470  10.8189  10.8189
    11.1265  11.1265

          k = 0.0000-0.0417 0.0382 ( 44560 PWs)   bands (ev):

   -56.2780 -56.2780 -56.2780 -56.2779 -56.2751 -56.2751 -56.2750 -56.2750
   -56.2603 -56.2603 -56.2602 -56.2602 -56.2551 -56.2551 -56.2550 -56.2550
   -56.2527 -56.2527 -56.2527 -56.2526 -56.2392 -56.2392 -56.2392 -56.2392
   -56.2271 -56.2271 -56.2271 -56.2271 -56.2235 -56.2235 -56.2235 -56.2235
   -56.2124 -56.2124 -56.2124 -56.2123 -56.2095 -56.2095 -56.2095 -56.2094
   -56.1943 -56.1942 -56.1942 -56.1942 -56.1933 -56.1933 -56.1933 -56.1932
   -56.1923 -56.1923 -56.1922 -56.1922 -56.1862 -56.1862 -56.1862 -56.1861
   -56.1832 -56.1832 -56.1832 -56.1832 -46.9314 -46.9314 -42.0575 -42.0575
   -41.7891 -41.7891 -41.7606 -41.7606 -20.7595 -20.7595 -20.7541 -20.7541
   -20.7540 -20.7540 -10.6114 -10.6114 -10.3251 -10.3251 -10.2972 -10.2972
   -10.2108 -10.2108 -10.2066 -10.2066 -10.1701 -10.1701  -0.0304  -0.0304
     0.2276   0.2276   0.3651   0.3651   0.4748   0.4748   0.6046   0.6046
     0.9320   0.9320   1.0441   1.0441   1.2375   1.2375   1.3501   1.3501
     1.5502   1.5502   1.6624   1.6624   1.7793   1.7793   1.8796   1.8796
     1.9706   1.9706   2.1524   2.1524   2.2622   2.2622   2.3657   2.3657
     2.4376   2.4376   7.3294   7.3294   7.3775   7.3775   7.4410   7.4410
     8.4412   8.4412   8.9327   8.9327   9.2537   9.2537   9.6354   9.6354
     9.8944   9.8944   9.9508   9.9508  10.4920  10.4920  10.5686  10.5686
    10.9350  10.9350

          k = 0.0000-0.0417-0.0765 ( 44568 PWs)   bands (ev):

   -56.2780 -56.2780 -56.2779 -56.2779 -56.2751 -56.2751 -56.2750 -56.2750
   -56.2603 -56.2603 -56.2602 -56.2602 -56.2551 -56.2551 -56.2550 -56.2550
   -56.2527 -56.2527 -56.2527 -56.2526 -56.2392 -56.2392 -56.2392 -56.2392
   -56.2272 -56.2271 -56.2271 -56.2271 -56.2235 -56.2235 -56.2235 -56.2235
   -56.2124 -56.2124 -56.2124 -56.2123 -56.2095 -56.2095 -56.2095 -56.2095
   -56.1942 -56.1942 -56.1942 -56.1942 -56.1933 -56.1933 -56.1933 -56.1933
   -56.1923 -56.1923 -56.1922 -56.1922 -56.1862 -56.1862 -56.1862 -56.1862
   -56.1832 -56.1832 -56.1832 -56.1832 -46.9314 -46.9314 -42.0575 -42.0575
   -41.7891 -41.7891 -41.7606 -41.7606 -20.7596 -20.7596 -20.7542 -20.7541
   -20.7540 -20.7540 -10.5505 -10.5505 -10.3687 -10.3687 -10.2998 -10.2998
   -10.2325 -10.2325 -10.1932 -10.1932 -10.1831 -10.1831   0.0541   0.0541
     0.2431   0.2431   0.3740   0.3740   0.6020   0.6021   0.7473   0.7473
     0.9811   0.9811   0.9845   0.9845   1.2424   1.2424   1.2466   1.2466
     1.4915   1.4915   1.5597   1.5597   1.8057   1.8057   1.8993   1.8993
     1.9839   1.9839   1.9973   1.9973   2.1977   2.1977   2.2923   2.2924
     2.3952   2.3952   7.2834   7.2834   7.3443   7.3443   7.4708   7.4709
     8.5960   8.5960   9.2066   9.2066   9.4981   9.4981   9.8001   9.8001
    10.0196  10.0196  10.0216  10.0216  10.5284  10.5284  10.5885  10.5885
    11.1830  11.1832

          k = 0.0359 0.0000 0.0128 ( 44614 PWs)   bands (ev):

   -56.2780 -56.2780 -56.2780 -56.2779 -56.2751 -56.2751 -56.2750 -56.2750
   -56.2603 -56.2603 -56.2602 -56.2602 -56.2551 -56.2551 -56.2550 -56.2550
   -56.2527 -56.2527 -56.2527 -56.2526 -56.2392 -56.2392 -56.2392 -56.2392
   -56.2272 -56.2271 -56.2271 -56.2271 -56.2235 -56.2235 -56.2235 -56.2235
   -56.2124 -56.2124 -56.2124 -56.2124 -56.2095 -56.2095 -56.2095 -56.2095
   -56.1943 -56.1942 -56.1942 -56.1942 -56.1933 -56.1933 -56.1933 -56.1933
   -56.1923 -56.1923 -56.1923 -56.1922 -56.1862 -56.1862 -56.1862 -56.1862
   -56.1832 -56.1832 -56.1832 -56.1832 -46.9314 -46.9314 -42.0575 -42.0575
   -41.7891 -41.7891 -41.7606 -41.7606 -20.7595 -20.7595 -20.7542 -20.7542
   -20.7541 -20.7539 -10.6659 -10.5048 -10.3760 -10.3327 -10.2977 -10.2757
   -10.2450 -10.2426 -10.2190 -10.1893 -10.1536 -10.1405  -0.0906   0.0488
     0.2772   0.2781   0.3460   0.3955   0.4506   0.5318   0.7035   0.7574
     0.8337   0.8421   0.8936   0.9688   1.0408   1.1342   1.3529   1.3630
     1.4027   1.5086   1.6308   1.6866   1.8127   1.8444   1.9289   2.0106
     2.0110   2.0945   2.1333   2.1505   2.2270   2.2402   2.3253   2.4736
     2.4849   2.5248   7.1632   7.3375   7.3869   7.3933   7.4232   7.4491
     8.0623   8.8389   8.9058   8.9712   9.0327   9.0401   9.4200   9.6984
     9.7076   9.9512  10.0919  10.2146  10.3978  10.5422  10.6373  10.8089
    10.9871  11.0971

          k = 0.0359 0.0000 0.0510 ( 44515 PWs)   bands (ev):

   -56.2780 -56.2780 -56.2780 -56.2779 -56.2751 -56.2750 -56.2750 -56.2750
   -56.2603 -56.2603 -56.2602 -56.2602 -56.2551 -56.2551 -56.2550 -56.2550
   -56.2527 -56.2527 -56.2526 -56.2526 -56.2392 -56.2392 -56.2392 -56.2392
   -56.2271 -56.2271 -56.2271 -56.2271 -56.2235 -56.2235 -56.2234 -56.2234
   -56.2124 -56.2124 -56.2124 -56.2123 -56.2095 -56.2095 -56.2094 -56.2094
   -56.1943 -56.1942 -56.1942 -56.1942 -56.1933 -56.1932 -56.1932 -56.1932
   -56.1923 -56.1923 -56.1922 -56.1922 -56.1862 -56.1861 -56.1861 -56.1861
   -56.1832 -56.1832 -56.1832 -56.1832 -46.9314 -46.9314 -42.0575 -42.0575
   -41.7891 -41.7890 -41.7606 -41.7606 -20.7595 -20.7595 -20.7542 -20.7542
   -20.7541 -20.7539 -10.6024 -10.4632 -10.3645 -10.3405 -10.3351 -10.2801
   -10.2675 -10.2530 -10.2511 -10.1963 -10.1606 -10.1418   0.0747   0.1290
     0.2329   0.2718   0.4716   0.4879   0.5456   0.5790   0.6396   0.7420
     0.7530   0.8931   1.0485   1.0534   1.0573   1.1631   1.2745   1.2863
     1.3422   1.4334   1.5805   1.6901   1.7578   1.8683   1.9342   1.9586
     1.9954   2.0009   2.0744   2.1404   2.2181   2.2246   2.2317   2.2595
     2.3705   2.4910   7.1914   7.2428   7.3565   7.3678   7.4687   7.4795
     8.6464   8.6867   8.9589   9.0080   9.0241   9.5122   9.5686   9.7956
     9.8779  10.0116  10.1226  10.2515  10.2556  10.5140  10.5631  10.7976
    11.0921  11.3026

          k = 0.0359 0.0000-0.0637 ( 44530 PWs)   bands (ev):

   -56.2780 -56.2780 -56.2779 -56.2779 -56.2751 -56.2751 -56.2750 -56.2750
   -56.2603 -56.2603 -56.2602 -56.2602 -56.2551 -56.2550 -56.2550 -56.2550
   -56.2527 -56.2527 -56.2526 -56.2526 -56.2392 -56.2392 -56.2392 -56.2392
   -56.2271 -56.2271 -56.2271 -56.2271 -56.2235 -56.2235 -56.2235 -56.2234
   -56.2124 -56.2124 -56.2124 -56.2123 -56.2095 -56.2095 -56.2094 -56.2094
   -56.1942 -56.1942 -56.1942 -56.1942 -56.1933 -56.1932 -56.1932 -56.1932
   -56.1923 -56.1923 -56.1923 -56.1922 -56.1862 -56.1862 -56.1861 -56.1861
   -56.1832 -56.1832 -56.1832 -56.1832 -46.9314 -46.9314 -42.0575 -42.0575
   -41.7891 -41.7890 -41.7606 -41.7606 -20.7596 -20.7595 -20.7543 -20.7542
   -20.7541 -20.7539 -10.5736 -10.4326 -10.3651 -10.3599 -10.3122 -10.2988
   -10.2937 -10.2612 -10.2511 -10.1752 -10.1700 -10.1658  -0.0091  -0.0067
     0.2112   0.2217   0.3973   0.4139   0.4801   0.5520   0.5767   0.6662
     0.7174   0.9213   1.0849   1.1142   1.1886   1.2598   1.3870   1.4560
     1.4566   1.6370   1.7124   1.7143   1.7650   1.8640   1.8865   1.8915
     1.9589   1.9905   2.0641   2.1415   2.1933   2.2614   2.2830   2.2986
     2.4247   2.4735   7.1142   7.1976   7.2693   7.2883   7.3750   7.4560
     8.6628   8.7264   9.0956   9.1351   9.1712   9.2406   9.5188   9.5418
     9.6778   9.8400   9.8876  10.0017  10.0457  10.1122  10.3281  10.4625
    11.0445  11.2100

          k = 0.0359 0.0000-0.0255 ( 44542 PWs)   bands (ev):

   -56.2780 -56.2780 -56.2780 -56.2779 -56.2751 -56.2751 -56.2750 -56.2750
   -56.2603 -56.2603 -56.2602 -56.2602 -56.2551 -56.2550 -56.2550 -56.2550
   -56.2527 -56.2527 -56.2527 -56.2526 -56.2392 -56.2392 -56.2392 -56.2392
   -56.2271 -56.2271 -56.2271 -56.2271 -56.2235 -56.2235 -56.2235 -56.2235
   -56.2124 -56.2124 -56.2124 -56.2123 -56.2095 -56.2095 -56.2095 -56.2094
   -56.1942 -56.1942 -56.1942 -56.1942 -56.1933 -56.1933 -56.1932 -56.1932
   -56.1923 -56.1923 -56.1923 -56.1922 -56.1862 -56.1862 -56.1862 -56.1861
   -56.1832 -56.1832 -56.1832 -56.1832 -46.9314 -46.9314 -42.0575 -42.0575
   -41.7891 -41.7890 -41.7606 -41.7606 -20.7595 -20.7595 -20.7542 -20.7542
   -20.7541 -20.7539 -10.6483 -10.4864 -10.3643 -10.3165 -10.3094 -10.2792
   -10.2676 -10.2455 -10.2281 -10.1812 -10.1630 -10.1563  -0.1330  -0.0262
     0.1932   0.2552   0.2961   0.3499   0.4009   0.4209   0.5388   0.6266
     0.7246   0.8988   1.0538   1.0984   1.2394   1.3164   1.3692   1.4438
     1.5815   1.6838   1.7007   1.7672   1.7920   1.8051   1.8516   1.9401
     2.0085   2.0618   2.1211   2.1448   2.3155   2.3390   2.3995   2.4140
     2.4657   2.5379   7.1080   7.2349   7.2577   7.3410   7.3692   7.4204
     8.0937   8.7203   8.9226   9.0139   9.1808   9.2724   9.4230   9.5264
     9.5622   9.7555   9.7855   9.9356   9.9684  10.2103  10.2330  10.3126
    10.8516  11.1911

          k = 0.0359-0.0417 0.0128 ( 44572 PWs)   bands (ev):

   -56.2780 -56.2780 -56.2780 -56.2779 -56.2751 -56.2751 -56.2750 -56.2750
   -56.2603 -56.2603 -56.2602 -56.2602 -56.2551 -56.2551 -56.2550 -56.2550
   -56.2527 -56.2527 -56.2527 -56.2526 -56.2392 -56.2392 -56.2392 -56.2392
   -56.2271 -56.2271 -56.2271 -56.2271 -56.2235 -56.2235 -56.2235 -56.2235
   -56.2124 -56.2124 -56.2124 -56.2124 -56.2095 -56.2095 -56.2095 -56.2095
   -56.1943 -56.1942 -56.1942 -56.1942 -56.1933 -56.1933 -56.1932 -56.1932
   -56.1923 -56.1923 -56.1922 -56.1922 -56.1862 -56.1862 -56.1862 -56.1862
   -56.1832 -56.1832 -56.1832 -56.1832 -46.9314 -46.9314 -42.0575 -42.0575
   -41.7891 -41.7891 -41.7606 -41.7606 -20.7595 -20.7595 -20.7542 -20.7542
   -20.7540 -20.7540 -10.6053 -10.6053 -10.3190 -10.3190 -10.3051 -10.3050
   -10.2328 -10.2328 -10.1986 -10.1986 -10.1607 -10.1607  -0.0276  -0.0276
     0.2425   0.2425   0.3215   0.3215   0.5297   0.5297   0.5944   0.5944
     0.8845   0.8845   1.0604   1.0605   1.2756   1.2756   1.3775   1.3775
     1.4902   1.4902   1.6723   1.6723   1.7175   1.7175   1.8669   1.8669
     2.0342   2.0342   2.1262   2.1262   2.3062   2.3062   2.3463   2.3463
     2.4487   2.4487   7.3351   7.3351   7.3961   7.3961   7.4106   7.4106
     8.4144   8.4144   9.0233   9.0233   9.1328   9.1328   9.6082   9.6082
     9.8556   9.8556  10.1441  10.1441  10.3844  10.3844  10.5294  10.5294
    11.0664  11.0664

          k = 0.0359-0.0417 0.0510 ( 44568 PWs)   bands (ev):

   -56.2780 -56.2780 -56.2780 -56.2779 -56.2751 -56.2751 -56.2750 -56.2750
   -56.2603 -56.2603 -56.2602 -56.2602 -56.2551 -56.2551 -56.2550 -56.2550
   -56.2527 -56.2527 -56.2527 -56.2527 -56.2392 -56.2392 -56.2392 -56.2392
   -56.2271 -56.2271 -56.2271 -56.2271 -56.2235 -56.2235 -56.2234 -56.2234
   -56.2124 -56.2124 -56.2124 -56.2124 -56.2095 -56.2095 -56.2095 -56.2095
   -56.1943 -56.1943 -56.1942 -56.1942 -56.1933 -56.1933 -56.1932 -56.1932
   -56.1923 -56.1923 -56.1922 -56.1922 -56.1862 -56.1862 -56.1862 -56.1862
   -56.1832 -56.1832 -56.1832 -56.1832 -46.9314 -46.9314 -42.0575 -42.0575
   -41.7891 -41.7891 -41.7606 -41.7606 -20.7595 -20.7595 -20.7542 -20.7542
   -20.7540 -20.7540 -10.5492 -10.5492 -10.3422 -10.3422 -10.3080 -10.3080
   -10.2503 -10.2503 -10.2240 -10.2240 -10.1542 -10.1542   0.0314   0.0314
     0.2893   0.2893   0.4276   0.4276   0.5910   0.5910   0.6811   0.6811
     0.8430   0.8430   1.0098   1.0098   1.1864   1.1864   1.4732   1.4732
     1.5432   1.5432   1.6005   1.6005   1.6671   1.6671   1.8165   1.8165
     1.9585   1.9585   2.1155   2.1155   2.2233   2.2233   2.2879   2.2879
     2.3551   2.3551   7.2894   7.2894   7.3596   7.3596   7.4667   7.4667
     8.5609   8.5609   9.1082   9.1082   9.4936   9.4936   9.8069   9.8069
     9.8719   9.8719  10.1519  10.1519  10.2614  10.2614  10.6078  10.6078
    11.1339  11.1339

          k = 0.0359-0.0417-0.0637 ( 44542 PWs)   bands (ev):

   -56.2780 -56.2780 -56.2779 -56.2779 -56.2751 -56.2751 -56.2750 -56.2750
   -56.2603 -56.2603 -56.2602 -56.2602 -56.2551 -56.2551 -56.2550 -56.2550
   -56.2527 -56.2527 -56.2526 -56.2526 -56.2392 -56.2392 -56.2392 -56.2392
   -56.2271 -56.2271 -56.2271 -56.2271 -56.2235 -56.2235 -56.2235 -56.2235
   -56.2124 -56.2124 -56.2124 -56.2123 -56.2095 -56.2095 -56.2095 -56.2094
   -56.1942 -56.1942 -56.1942 -56.1942 -56.1933 -56.1933 -56.1932 -56.1932
   -56.1923 -56.1923 -56.1922 -56.1922 -56.1862 -56.1862 -56.1861 -56.1861
   -56.1832 -56.1832 -56.1832 -56.1832 -46.9314 -46.9314 -42.0575 -42.0575
   -41.7891 -41.7890 -41.7606 -41.7606 -20.7596 -20.7595 -20.7543 -20.7542
   -20.7540 -20.7540 -10.5188 -10.5188 -10.3601 -10.3601 -10.3172 -10.3172
   -10.2410 -10.2410 -10.2168 -10.2168 -10.1755 -10.1755  -0.1015  -0.1015
     0.3047   0.3047   0.3463   0.3463   0.5429   0.5429   0.6438   0.6438
     0.8769   0.8769   1.1208   1.1208   1.2630   1.2630   1.4533   1.4533
     1.5465   1.5465   1.6270   1.6270   1.7820   1.7820   1.8968   1.8968
     2.0107   2.0107   2.0913   2.0913   2.1797   2.1797   2.2848   2.2848
     2.4252   2.4252   7.1677   7.1677   7.3285   7.3285   7.3998   7.3998
     8.7041   8.7041   9.0414   9.0414   9.2861   9.2862   9.4609   9.4609
     9.6560   9.6560  10.2264  10.2264  10.5323  10.5323  10.7154  10.7154
    10.9135  10.9136

          k = 0.0359-0.0417-0.0255 ( 44560 PWs)   bands (ev):

   -56.2780 -56.2780 -56.2780 -56.2779 -56.2751 -56.2751 -56.2750 -56.2750
   -56.2603 -56.2603 -56.2602 -56.2602 -56.2551 -56.2551 -56.2550 -56.2550
   -56.2527 -56.2527 -56.2527 -56.2526 -56.2392 -56.2392 -56.2392 -56.2392
   -56.2271 -56.2271 -56.2271 -56.2271 -56.2235 -56.2235 -56.2235 -56.2235
   -56.2124 -56.2124 -56.2124 -56.2123 -56.2095 -56.2095 -56.2095 -56.2094
   -56.1943 -56.1942 -56.1942 -56.1942 -56.1933 -56.1933 -56.1932 -56.1932
   -56.1923 -56.1923 -56.1923 -56.1922 -56.1862 -56.1862 -56.1861 -56.1861
   -56.1832 -56.1832 -56.1832 -56.1832 -46.9314 -46.9314 -42.0575 -42.0575
   -41.7891 -41.7891 -41.7606 -41.7606 -20.7595 -20.7595 -20.7542 -20.7542
   -20.7540 -20.7540 -10.5870 -10.5869 -10.3284 -10.3284 -10.2964 -10.2964
   -10.2275 -10.2275 -10.2001 -10.2001 -10.1835 -10.1834  -0.1221  -0.1221
     0.2201   0.2201   0.3160   0.3160   0.4331   0.4331   0.4902   0.4902
     0.9669   0.9669   1.1577   1.1577   1.3674   1.3674   1.4922   1.4922
     1.5183   1.5183   1.6282   1.6282   1.7348   1.7348   1.9274   1.9274
     2.0231   2.0231   2.0947   2.0947   2.3448   2.3448   2.4128   2.4128
     2.4581   2.4581   7.2311   7.2311   7.2920   7.2920   7.3801   7.3802
     8.5294   8.5295   8.8623   8.8623   9.1083   9.1083   9.5580   9.5580
     9.7121   9.7121  10.0816  10.0816  10.1980  10.1980  10.2789  10.2789
    11.0128  11.0128

          k =-0.0718 0.0000-0.0255 ( 44568 PWs)   bands (ev):

   -56.2780 -56.2780 -56.2779 -56.2779 -56.2751 -56.2751 -56.2750 -56.2750
   -56.2603 -56.2603 -56.2602 -56.2602 -56.2551 -56.2551 -56.2550 -56.2550
   -56.2527 -56.2527 -56.2527 -56.2527 -56.2392 -56.2392 -56.2392 -56.2392
   -56.2271 -56.2271 -56.2271 -56.2271 -56.2235 -56.2235 -56.2234 -56.2234
   -56.2124 -56.2124 -56.2124 -56.2124 -56.2095 -56.2095 -56.2095 -56.2095
   -56.1942 -56.1942 -56.1942 -56.1942 -56.1933 -56.1933 -56.1933 -56.1933
   -56.1923 -56.1923 -56.1922 -56.1922 -56.1862 -56.1862 -56.1862 -56.1862
   -56.1832 -56.1832 -56.1832 -56.1832 -46.9314 -46.9314 -42.0575 -42.0575
   -41.7891 -41.7891 -41.7606 -41.7606 -20.7595 -20.7595 -20.7543 -20.7543
   -20.7540 -20.7540 -10.5348 -10.5348 -10.3477 -10.3477 -10.3236 -10.3236
   -10.2699 -10.2699 -10.1916 -10.1916 -10.1606 -10.1606   0.0666   0.0666
     0.3791   0.3791   0.4257   0.4257   0.5090   0.5090   0.7343   0.7343
     0.8379   0.8379   1.0047   1.0047   1.1206   1.1206   1.1475   1.1475
     1.5900   1.5900   1.6750   1.6751   1.7175   1.7175   1.8371   1.8371
     2.0449   2.0449   2.0618   2.0618   2.1979   2.1979   2.3646   2.3646
     2.4211   2.4211   7.2741   7.2741   7.3128   7.3129   7.4280   7.4280
     8.7495   8.7495   8.9080   8.9080   9.2889   9.2889   9.8020   9.8020
    10.0636  10.0636  10.1581  10.1581  10.3759  10.3759  10.7201  10.7201
    11.1724  11.1725

          k =-0.0718 0.0000 0.0127 ( 44564 PWs)   bands (ev):

   -56.2780 -56.2780 -56.2780 -56.2779 -56.2751 -56.2751 -56.2750 -56.2750
   -56.2603 -56.2603 -56.2602 -56.2602 -56.2551 -56.2550 -56.2550 -56.2550
   -56.2527 -56.2527 -56.2527 -56.2526 -56.2392 -56.2392 -56.2392 -56.2392
   -56.2271 -56.2271 -56.2271 -56.2271 -56.2235 -56.2235 -56.2235 -56.2235
   -56.2124 -56.2124 -56.2124 -56.2123 -56.2095 -56.2095 -56.2095 -56.2094
   -56.1943 -56.1942 -56.1942 -56.1942 -56.1933 -56.1933 -56.1932 -56.1932
   -56.1923 -56.1923 -56.1922 -56.1922 -56.1862 -56.1862 -56.1861 -56.1861
   -56.1832 -56.1832 -56.1832 -56.1832 -46.9314 -46.9314 -42.0575 -42.0575
   -41.7891 -41.7891 -41.7606 -41.7606 -20.7595 -20.7595 -20.7543 -20.7543
   -20.7540 -20.7540 -10.5358 -10.4801 -10.3566 -10.3331 -10.3299 -10.3040
   -10.2977 -10.2795 -10.2209 -10.1893 -10.1718 -10.1608  -0.0924   0.0946
     0.2399   0.3019   0.3718   0.4209   0.4616   0.5346   0.5400   0.6044
     0.7140   0.9316   0.9547   1.1277   1.2315   1.3052   1.3665   1.4512
     1.5121   1.6838   1.6911   1.7285   1.7695   1.7915   1.8428   1.9879
     2.0143   2.0632   2.0810   2.0881   2.1360   2.1963   2.3168   2.3348
     2.3702   2.4785   7.1561   7.2280   7.2644   7.2684   7.3705   7.3861
     8.6364   8.8960   8.9602   9.0587   9.1766   9.3610   9.3738   9.6065
     9.7373   9.7436   9.9033   9.9447  10.1348  10.2250  10.2866  10.4374
    11.0627  11.2120

          k =-0.0718 0.0000-0.1020 ( 44606 PWs)   bands (ev):

   -56.2780 -56.2780 -56.2780 -56.2779 -56.2751 -56.2751 -56.2750 -56.2750
   -56.2603 -56.2603 -56.2602 -56.2602 -56.2551 -56.2551 -56.2550 -56.2550
   -56.2527 -56.2527 -56.2527 -56.2526 -56.2392 -56.2392 -56.2392 -56.2392
   -56.2271 -56.2271 -56.2271 -56.2271 -56.2235 -56.2235 -56.2235 -56.2235
   -56.2124 -56.2124 -56.2124 -56.2124 -56.2095 -56.2095 -56.2095 -56.2095
   -56.1943 -56.1942 -56.1942 -56.1942 -56.1933 -56.1933 -56.1933 -56.1933
   -56.1923 -56.1923 -56.1923 -56.1923 -56.1862 -56.1862 -56.1862 -56.1862
   -56.1832 -56.1832 -56.1832 -56.1832 -46.9314 -46.9314 -42.0575 -42.0575
   -41.7891 -41.7891 -41.7606 -41.7606 -20.7595 -20.7595 -20.7543 -20.7543
   -20.7540 -20.7540 -10.4803 -10.4803 -10.3526 -10.3526 -10.3223 -10.3223
   -10.2765 -10.2765 -10.2271 -10.2271 -10.1723 -10.1723  -0.0780  -0.0780
     0.1881   0.1881   0.3237   0.3237   0.3900   0.3900   0.6083   0.6083
     0.8615   0.8615   1.1779   1.1779   1.2976   1.2976   1.5678   1.5678
     1.6416   1.6416   1.6968   1.6968   1.8210   1.8210   1.8456   1.8456
     2.0437   2.0437   2.0949   2.0949   2.2798   2.2798   2.3081   2.3081
     2.4564   2.4564   7.1510   7.1511   7.2203   7.2203   7.2696   7.2696
     8.6315   8.6315   9.0265   9.0265   9.1843   9.1843   9.3165   9.3165
     9.5700   9.5700   9.7611   9.7611  10.0934  10.0934  10.4003  10.4003
    11.0419  11.0419

          k =-0.0718-0.0417-0.0255 ( 44552 PWs)   bands (ev):

   -56.2780 -56.2780 -56.2779 -56.2779 -56.2751 -56.2751 -56.2750 -56.2750
   -56.2603 -56.2603 -56.2602 -56.2602 -56.2551 -56.2551 -56.2550 -56.2550
   -56.2527 -56.2527 -56.2527 -56.2526 -56.2392 -56.2392 -56.2392 -56.2392
   -56.2271 -56.2271 -56.2271 -56.2271 -56.2235 -56.2235 -56.2234 -56.2234
   -56.2124 -56.2124 -56.2124 -56.2124 -56.2095 -56.2095 -56.2095 -56.2094
   -56.1942 -56.1942 -56.1942 -56.1942 -56.1933 -56.1933 -56.1932 -56.1932
   -56.1923 -56.1923 -56.1922 -56.1922 -56.1862 -56.1862 -56.1862 -56.1861
   -56.1832 -56.1832 -56.1832 -56.1832 -46.9314 -46.9314 -42.0575 -42.0575
   -41.7891 -41.7891 -41.7606 -41.7606 -20.7595 -20.7595 -20.7543 -20.7543
   -20.7540 -20.7540 -10.5268 -10.5268 -10.3908 -10.3908 -10.2877 -10.2877
   -10.2532 -10.2532 -10.2148 -10.2148 -10.1549 -10.1549   0.0171   0.0171
     0.2632   0.2632   0.4770   0.4770   0.6433   0.6433   0.6555   0.6555
     0.9202   0.9202   0.9809   0.9809   1.2000   1.2000   1.3250   1.3250
     1.4965   1.4965   1.5125   1.5125   1.7990   1.7990   1.8381   1.8382
     1.9977   1.9977   2.0773   2.0773   2.1529   2.1529   2.3124   2.3124
     2.4341   2.4341   7.2238   7.2238   7.3578   7.3578   7.4808   7.4808
     8.6084   8.6084   9.3410   9.3411   9.4590   9.4590   9.7278   9.7278
     9.7658   9.7658  10.0854  10.0854  10.6235  10.6235  10.7985  10.7985
    10.9539  10.9539

          k =-0.0718-0.0417 0.0127 ( 44584 PWs)   bands (ev):

   -56.2780 -56.2780 -56.2780 -56.2779 -56.2751 -56.2751 -56.2750 -56.2750
   -56.2603 -56.2603 -56.2602 -56.2602 -56.2551 -56.2551 -56.2550 -56.2550
   -56.2527 -56.2527 -56.2527 -56.2526 -56.2392 -56.2392 -56.2392 -56.2392
   -56.2271 -56.2271 -56.2271 -56.2271 -56.2235 -56.2235 -56.2235 -56.2235
   -56.2124 -56.2124 -56.2124 -56.2124 -56.2095 -56.2095 -56.2095 -56.2095
   -56.1942 -56.1942 -56.1942 -56.1942 -56.1933 -56.1933 -56.1933 -56.1932
   -56.1923 -56.1923 -56.1923 -56.1922 -56.1862 -56.1862 -56.1862 -56.1862
   -56.1832 -56.1832 -56.1832 -56.1832 -46.9314 -46.9314 -42.0575 -42.0575
   -41.7891 -41.7891 -41.7606 -41.7606 -20.7595 -20.7595 -20.7543 -20.7543
   -20.7540 -20.7540 -10.5037 -10.5037 -10.3760 -10.3759 -10.3129 -10.3129
   -10.2534 -10.2534 -10.2175 -10.2175 -10.1662 -10.1662  -0.1069  -0.1069
     0.2952   0.2952   0.3974   0.3974   0.5054   0.5054   0.6454   0.6454
     0.9475   0.9475   1.0699   1.0699   1.1996   1.1996   1.4828   1.4828
     1.5293   1.5293   1.6261   1.6261   1.7482   1.7482   1.9493   1.9493
     2.0528   2.0528   2.0931   2.0931   2.1531   2.1531   2.2656   2.2656
     2.4417   2.4417   7.1384   7.1384   7.3460   7.3460   7.4069   7.4070
     8.7578   8.7578   8.9629   8.9629   9.1963   9.1963   9.4900   9.4900
     9.7411   9.7411  10.2002  10.2002  10.5645  10.5645  10.7909  10.7909
    10.8757  10.8757

          k =-0.0718-0.0417-0.1020 ( 44544 PWs)   bands (ev):

   -56.2780 -56.2780 -56.2779 -56.2779 -56.2751 -56.2750 -56.2750 -56.2750
   -56.2603 -56.2603 -56.2602 -56.2602 -56.2551 -56.2551 -56.2550 -56.2550
   -56.2527 -56.2527 -56.2526 -56.2526 -56.2392 -56.2392 -56.2392 -56.2392
   -56.2271 -56.2271 -56.2271 -56.2271 -56.2235 -56.2235 -56.2235 -56.2235
   -56.2124 -56.2124 -56.2124 -56.2124 -56.2095 -56.2095 -56.2094 -56.2094
   -56.1943 -56.1942 -56.1942 -56.1942 -56.1932 -56.1932 -56.1932 -56.1932
   -56.1923 -56.1923 -56.1923 -56.1922 -56.1861 -56.1861 -56.1861 -56.1861
   -56.1832 -56.1832 -56.1832 -56.1832 -46.9314 -46.9314 -42.0575 -42.0575
   -41.7891 -41.7890 -41.7606 -41.7606 -20.7595 -20.7595 -20.7543 -20.7543
   -20.7540 -20.7540 -10.4658 -10.4658 -10.3869 -10.3869 -10.3269 -10.3268
   -10.2489 -10.2489 -10.2164 -10.2164 -10.1863 -10.1863  -0.2054  -0.2054
     0.2429   0.2429   0.3307   0.3307   0.4938   0.4938   0.6863   0.6863
     0.9561   0.9561   1.1120   1.1120   1.2149   1.2149   1.5201   1.5201
     1.5489   1.5489   1.6825   1.6825   1.7404   1.7404   1.9842   1.9842
     2.1135   2.1135   2.1360   2.1360   2.2728   2.2728   2.3064   2.3064
     2.3670   2.3670   7.0317   7.0317   7.3000   7.3001   7.3558   7.3558
     8.6875   8.6875   8.7801   8.7801   9.1481   9.1481   9.2498   9.2498
     9.7502   9.7502  10.1602  10.1602  10.6151  10.6151  10.7757  10.7757
    10.8722  10.8722

     the Fermi energy is     4.8562 ev

!    total energy              =   -6740.54840622 Ry

     total all-electron energy =   -114993.564364 Ry
     estimated scf accuracy    <          8.2E-09 Ry
     smearing contrib. (-TS)   =      -0.00000000 Ry
     internal energy E=F+TS    =   -6740.54840622 Ry

     The total energy is F=E-TS. E is the sum of the following terms:
     one-electron contribution =   -3515.74960729 Ry
     hartree contribution      =    1687.86994725 Ry
     xc contribution           =    -503.21621451 Ry
     ewald contribution        =   -1690.68325647 Ry
     one-center paw contrib.   =   -2718.76927521 Ry

     convergence has been achieved in   9 iterations

     Forces acting on atoms (cartesian axes, Ry/au):

     atom    1 type  1   force =     0.00000000   -0.00204528    0.00000000
     atom    2 type  1   force =     0.00000000    0.00041130    0.00000000
     atom    3 type  1   force =     0.00000000   -0.00038020    0.00000000
     atom    4 type  1   force =     0.00000000   -0.00204275    0.00000000
     atom    5 type  1   force =     0.00000000    0.00041576    0.00000000
     atom    6 type  1   force =     0.00000000   -0.00038244    0.00000000
     atom    7 type  2   force =     0.00000000    0.00081784    0.00000000
     atom    8 type  2   force =     0.00000000    0.00082265    0.00000000
     atom    9 type  3   force =     0.00088593    0.00154598    0.00386104
     atom   10 type  3   force =     0.00317903   -0.00243055    0.00128558
     atom   11 type  3   force =    -0.00317903   -0.00243055   -0.00128558
     atom   12 type  3   force =    -0.00088593    0.00154598   -0.00386104
     atom   13 type  3   force =    -0.00318046    0.00144708    0.00333650
     atom   14 type  3   force =     0.00318046    0.00144708   -0.00333650
     atom   15 type  3   force =     0.00090553    0.00153014    0.00392129
     atom   16 type  3   force =     0.00316342   -0.00239220    0.00128818
     atom   17 type  3   force =    -0.00316342   -0.00239220   -0.00128818
     atom   18 type  3   force =    -0.00090553    0.00153014   -0.00392129
     atom   19 type  3   force =    -0.00313480    0.00149111    0.00335472
     atom   20 type  3   force =     0.00313480    0.00149111   -0.00335472

     Total force =     0.015716     Total SCF correction =     0.000318


     Computing stress (Cartesian axis) and pressure

          total   stress  (Ry/bohr**3)                   (kbar)     P=       -7.50
  -0.00005416   0.00000000   0.00000130           -7.97        0.00        0.19
   0.00000000  -0.00005561   0.00000000            0.00       -8.18        0.00
   0.00000130   0.00000000  -0.00004315            0.19        0.00       -6.35


     Writing output data file ./pwscf.save/
 
     init_run     :      4.97s CPU      5.45s WALL (       1 calls)
     electrons    :    102.50s CPU    103.56s WALL (       1 calls)
     forces       :      2.15s CPU      2.15s WALL (       1 calls)
     stress       :     14.41s CPU     14.44s WALL (       1 calls)

     Called by init_run:
     wfcinit      :      3.14s CPU      3.20s WALL (       1 calls)
     potinit      :      0.59s CPU      0.61s WALL (       1 calls)
     hinit0       :      0.88s CPU      1.26s WALL (       1 calls)

     Called by electrons:
     c_bands      :     87.85s CPU     88.60s WALL (      10 calls)
     sum_band     :     12.47s CPU     12.63s WALL (      10 calls)
     v_of_rho     :      0.33s CPU      0.34s WALL (      10 calls)
     newd         :      1.03s CPU      1.05s WALL (      10 calls)
     PAW_pot      :      0.90s CPU      0.91s WALL (      10 calls)
     mix_rho      :      0.06s CPU      0.06s WALL (      10 calls)

     Called by c_bands:
     init_us_2    :      0.71s CPU      0.72s WALL (     230 calls)
     cegterg      :     81.21s CPU     81.92s WALL (     100 calls)

     Called by *egterg:
     cdiaghg      :     16.76s CPU     16.81s WALL (     531 calls)
     h_psi        :     48.87s CPU     49.51s WALL (     551 calls)
     s_psi        :      3.75s CPU      3.76s WALL (     551 calls)
     g_psi        :      0.15s CPU      0.16s WALL (     441 calls)

     Called by h_psi:
     h_psi:calbec :      3.84s CPU      3.87s WALL (     551 calls)
     vloc_psi     :     40.91s CPU     41.50s WALL (     551 calls)
     add_vuspsi   :      3.75s CPU      3.77s WALL (     551 calls)

     General routines
     calbec       :      6.10s CPU      6.13s WALL (     701 calls)
     fft          :      0.23s CPU      0.61s WALL (     154 calls)
     ffts         :      0.04s CPU      0.05s WALL (      20 calls)
     fftw         :     45.42s CPU     46.06s WALL (   86320 calls)
     interpolate  :      0.05s CPU      0.06s WALL (      10 calls)
 
     Parallel routines
     fft_scatt_xy :      5.69s CPU      5.77s WALL (   86494 calls)
     fft_scatt_yz :     12.33s CPU     12.51s WALL (   86494 calls)
 
     PWSCF        :   2m 5.32s CPU   2m 9.27s WALL

 
   This run was terminated on:  17:23: 6   2Aug2021            

=------------------------------------------------------------------------------=
   JOB DONE.
=------------------------------------------------------------------------------=
