
     Program PWSCF v.6.7MaX starts on  2Aug2021 at 18: 7:46 

     This program is part of the open-source Quantum ESPRESSO suite
     for quantum simulation of materials; please cite
         "P. Giannozzi et al., J. Phys.:Condens. Matter 21 395502 (2009);
         "P. Giannozzi et al., J. Phys.:Condens. Matter 29 465901 (2017);
          URL http://www.quantum-espresso.org", 
     in publications or presentations arising from this work. More details at
     http://www.quantum-espresso.org/quote

     Parallel version (MPI), running on    48 processors

     MPI processes distributed on     2 nodes
     K-points division:     npool     =       2
     R & G space division:  proc/nbgrp/npool/nimage =      24
     Waiting for input...
     Reading input from standard input
Warning: card &CELL ignored
Warning: card CELL_DYNAMICS             = 'BFGS', ignored
Warning: card PRESS                     = '0.0', ignored
Warning: card PRESS_CONV_THR            = '0.5', ignored
Warning: card / ignored
     Message from routine read_cards :
     DEPRECATED: no units specified in CELL_PARAMETERS card

     Current dimensions of program PWSCF are:
     Max number of different atomic species (ntypx) = 10
     Max number of k-points (npk) =  40000
     Max angular momentum in pseudopotentials (lmaxx) =  3
     Message from routine cell_base_init:
     DEPRECATED: use true lattice parameter, not A to a.u. conversion factor
 end of file reached, closing tag not found
     file Er.pbe-spdn-kjpaw_psl.1.0.0.UPF: wavefunction(s)  6S 5D renormalized
     file Br.pbe-dn-kjpaw_psl.1.0.0.UPF: wavefunction(s)  4S 4P 3D renormalized

     Subspace diagonalization in iterative solution of the eigenvalue problem:
     a serial algorithm will be used

     Found symmetry operation: I + ( -0.5000 -0.5000  0.0000)
     This is a supercell, fractional translations are disabled
     Message from routine setup:
     using ibrav=0 with symmetry is DISCOURAGED, use correct ibrav instead
 
     Parallelization info
     --------------------
     sticks:   dense  smooth     PW     G-vecs:    dense   smooth      PW
     Min         792     633    169                58719    42017    5815
     Max         794     634    170                58720    42018    5819
     Sum       19015   15197   4077              1409259  1008415  139617
 


     bravais-lattice index     =            0
     lattice parameter (alat)  =       1.8897  a.u.
     unit-cell volume          =    3688.3023 (a.u.)^3
     number of atoms/cell      =           20
     number of atomic types    =            3
     number of electrons       =       244.00
     number of Kohn-Sham states=          146
     kinetic-energy cutoff     =     160.0000  Ry
     charge density cutoff     =     800.0000  Ry
     scf convergence threshold =      1.0E-08
     mixing beta               =       0.4000
     number of iterations used =            8  plain     mixing
     Exchange-correlation= SLA  PW   PBX  PBC
                           (   1   4   3   4   0   0   0)

     celldm(1)=   1.889726  celldm(2)=   0.000000  celldm(3)=   0.000000
     celldm(4)=   0.000000  celldm(5)=   0.000000  celldm(6)=   0.000000

     crystal axes: (cart. coord. in units of alat)
               a(1) = (   6.967356   0.000000   0.000000 )  
               a(2) = (   0.000000  11.998880   0.000000 )  
               a(3) = (  -2.324723   0.000000   6.537643 )  

     reciprocal axes: (cart. coord. in units 2 pi/alat)
               b(1) = (  0.143526  0.000000  0.051037 )  
               b(2) = (  0.000000  0.083341  0.000000 )  
               b(3) = (  0.000000  0.000000  0.152960 )  


     PseudoPot. # 1 for Li read from file:
     /central/groups/SeeGroup/qe_pseudopotentials/Li.pbe-s-kjpaw_psl.1.0.0.UPF
     MD5 check sum: cc502796ee09d8b62ac346ee26e59beb
     Pseudo is Projector augmented-wave, Zval =  3.0
     Generated using &quot;atomic&quot; code by A. Dal Corso  v.6.3
     Shape of augmentation charge: PSQ
     Using radial grid of 1017 points,  4 beta functions with: 
                l(1) =   0
                l(2) =   0
                l(3) =   1
                l(4) =   1
     Q(r) pseudized with 0 coefficients 


     PseudoPot. # 2 for Er read from file:
     /central/groups/SeeGroup/qe_pseudopotentials/Er.pbe-spdn-kjpaw_psl.1.0.0.UPF
     MD5 check sum: a923254af2aef992cff3e18bc73f2922
     Pseudo is Projector augmented-wave + core cor, Zval = 11.0
     Generated using &quot;atomic&quot; code by A. Dal Corso  v.6.2.2
     Shape of augmentation charge: PSQ
     Using radial grid of 1267 points,  6 beta functions with: 
                l(1) =   0
                l(2) =   0
                l(3) =   1
                l(4) =   1
                l(5) =   2
                l(6) =   2
     Q(r) pseudized with 0 coefficients 


     PseudoPot. # 3 for Br read from file:
     /central/groups/SeeGroup/qe_pseudopotentials/Br.pbe-dn-kjpaw_psl.1.0.0.UPF
     MD5 check sum: 4ca4ebabfd6065c7bb707b2ebe99e9b3
     Pseudo is Projector augmented-wave + core cor, Zval = 17.0
     Generated using &quot;atomic&quot; code by A. Dal Corso  v.6.3
     Shape of augmentation charge: PSQ
     Using radial grid of 1213 points,  6 beta functions with: 
                l(1) =   0
                l(2) =   0
                l(3) =   1
                l(4) =   1
                l(5) =   2
                l(6) =   2
     Q(r) pseudized with 0 coefficients 


     atomic species   valence    mass     pseudopotential
        Li             3.00     6.94100     Li( 1.00)
        Er            11.00   167.25900     Er( 1.00)
        Br            17.00    79.90400     Br( 1.00)

      2 Sym. Ops. (no inversion) found



   Cartesian axes

     site n.     atom                  positions (alat units)
         1           Li  tau(   1) = (   3.4836780   9.9564306   0.0000000  )
         2           Li  tau(   2) = (   3.4836780   2.0173957   0.0000000  )
         3           Li  tau(   3) = (   2.3213165   7.8846440   3.2688215  )
         4           Li  tau(   4) = (   0.0000000   3.9569906   0.0000000  )
         5           Li  tau(   5) = (   0.0000000   8.0168357   0.0000000  )
         6           Li  tau(   6) = (  -1.1623615   1.8852040   3.2688215  )
         7           Er  tau(   7) = (   3.4836780   5.9699947   0.0000000  )
         8           Er  tau(   8) = (   0.0000000  11.9694347   0.0000000  )
         9           Br  tau(   9) = (   3.4471523   9.9581465   5.0158758  )
        10           Br  tau(  10) = (   3.5847273   1.9854607   4.9258002  )
        11           Br  tau(  11) = (   1.0579057   1.9854607   1.6118428  )
        12           Br  tau(  12) = (   1.1954807   9.9581465   1.5217672  )
        13           Br  tau(  13) = (  -0.0150075   0.0698395   4.9769442  )
        14           Br  tau(  14) = (   4.6576405   0.0698395   1.5606988  )
        15           Br  tau(  15) = (  -0.0365257   3.9587065   5.0158758  )
        16           Br  tau(  16) = (   0.1010493   7.9849007   4.9258002  )
        17           Br  tau(  17) = (   4.5415837   7.9849007   1.6118428  )
        18           Br  tau(  18) = (   4.6791587   3.9587065   1.5217672  )
        19           Br  tau(  19) = (   3.4686705   6.0692795   4.9769442  )
        20           Br  tau(  20) = (   1.1739625   6.0692795   1.5606988  )

     number of k points=   102  Fermi-Dirac smearing, width (Ry)=  0.0070

     Number of k-points >= 100: set verbosity='high' to print them.

     Dense  grid:  1409259 G-vectors     FFT dimensions: ( 120, 216, 120)

     Smooth grid:  1008415 G-vectors     FFT dimensions: ( 108, 192, 108)

     Estimated max dynamical RAM per process >     775.09 MB

     Estimated total dynamical RAM >      36.33 GB

     Initial potential from superposition of free atoms

     starting charge  243.93496, renormalised to  244.00000
     Starting wfcs are  164 randomized atomic wfcs
     Checking if some PAW data can be deallocated... 

     total cpu time spent up to now is       63.7 secs

     Self-consistent Calculation

     iteration #  1     ecut=   160.00 Ry     beta= 0.40
     Davidson diagonalization with overlap
     ethr =  1.00E-02,  avg # of iterations =  5.5

     Threshold (ethr) on eigenvalues was too large:
     Diagonalizing with lowered threshold

     Davidson diagonalization with overlap
     ethr =  1.18E-04,  avg # of iterations =  9.1

     total cpu time spent up to now is      451.4 secs

     total energy              =   -6740.53138596 Ry
     estimated scf accuracy    <       0.28259531 Ry

     iteration #  2     ecut=   160.00 Ry     beta= 0.40
     Davidson diagonalization with overlap
     ethr =  1.16E-04,  avg # of iterations =  2.1

     total cpu time spent up to now is      612.5 secs

     total energy              =   -6740.55759991 Ry
     estimated scf accuracy    <       0.03863930 Ry

     iteration #  3     ecut=   160.00 Ry     beta= 0.40
     Davidson diagonalization with overlap
     c_bands:  1 eigenvalues not converged
     c_bands:  1 eigenvalues not converged
     ethr =  1.58E-05,  avg # of iterations =  7.9

     total cpu time spent up to now is      811.3 secs

     total energy              =   -6740.56268592 Ry
     estimated scf accuracy    <       0.00542542 Ry

     iteration #  4     ecut=   160.00 Ry     beta= 0.40
     Davidson diagonalization with overlap
     ethr =  2.22E-06,  avg # of iterations =  8.3

     total cpu time spent up to now is     1007.4 secs

     total energy              =   -6740.56337909 Ry
     estimated scf accuracy    <       0.00078386 Ry

     iteration #  5     ecut=   160.00 Ry     beta= 0.40
     Davidson diagonalization with overlap
     ethr =  3.21E-07,  avg # of iterations =  2.0

     total cpu time spent up to now is     1162.5 secs

     total energy              =   -6740.56351631 Ry
     estimated scf accuracy    <       0.00018732 Ry

     iteration #  6     ecut=   160.00 Ry     beta= 0.40
     Davidson diagonalization with overlap
     ethr =  7.68E-08,  avg # of iterations =  2.0

     total cpu time spent up to now is     1317.6 secs

     total energy              =   -6740.56353501 Ry
     estimated scf accuracy    <       0.00003643 Ry

     iteration #  7     ecut=   160.00 Ry     beta= 0.40
     Davidson diagonalization with overlap
     ethr =  1.49E-08,  avg # of iterations =  2.0

     total cpu time spent up to now is     1473.9 secs

     total energy              =   -6740.56353714 Ry
     estimated scf accuracy    <       0.00000094 Ry

     iteration #  8     ecut=   160.00 Ry     beta= 0.40
     Davidson diagonalization with overlap
     ethr =  3.84E-10,  avg # of iterations =  2.0

     total cpu time spent up to now is     1654.1 secs

     total energy              =   -6740.56353741 Ry
     estimated scf accuracy    <       0.00000012 Ry

     iteration #  9     ecut=   160.00 Ry     beta= 0.40
     Davidson diagonalization with overlap
     ethr =  5.06E-11,  avg # of iterations =  2.0

     total cpu time spent up to now is     1813.8 secs

     End of self-consistent calculation

     Number of k-points >= 100: set verbosity='high' to print the bands.

     the Fermi energy is     4.8318 ev

!    total energy              =   -6740.56353751 Ry

     total all-electron energy =   -114993.579495 Ry
     estimated scf accuracy    <          8.8E-09 Ry
     smearing contrib. (-TS)   =      -0.00000000 Ry
     internal energy E=F+TS    =   -6740.56353751 Ry

     The total energy is F=E-TS. E is the sum of the following terms:
     one-electron contribution =   -3515.78535554 Ry
     hartree contribution      =    1687.90809839 Ry
     xc contribution           =    -503.21879282 Ry
     ewald contribution        =   -1690.68325647 Ry
     one-center paw contrib.   =   -2718.78423107 Ry

     convergence has been achieved in   9 iterations

     Forces acting on atoms (cartesian axes, Ry/au):

     atom    1 type  1   force =     0.00000000   -0.00206665    0.00000000
     atom    2 type  1   force =     0.00000000    0.00042243    0.00000000
     atom    3 type  1   force =     0.00000000   -0.00040074    0.00000000
     atom    4 type  1   force =     0.00000000   -0.00206584    0.00000000
     atom    5 type  1   force =     0.00000000    0.00042781    0.00000000
     atom    6 type  1   force =     0.00000000   -0.00040374    0.00000000
     atom    7 type  2   force =     0.00000000    0.00081623    0.00000000
     atom    8 type  2   force =     0.00000000    0.00082189    0.00000000
     atom    9 type  3   force =     0.00087951    0.00150870    0.00388971
     atom   10 type  3   force =     0.00318935   -0.00240786    0.00127194
     atom   11 type  3   force =    -0.00318935   -0.00240786   -0.00127194
     atom   12 type  3   force =    -0.00087951    0.00150870   -0.00388971
     atom   13 type  3   force =    -0.00318558    0.00147169    0.00333057
     atom   14 type  3   force =     0.00318558    0.00147169   -0.00333057
     atom   15 type  3   force =     0.00088118    0.00148100    0.00393042
     atom   16 type  3   force =     0.00316518   -0.00235516    0.00125479
     atom   17 type  3   force =    -0.00316518   -0.00235516   -0.00125479
     atom   18 type  3   force =    -0.00088118    0.00148100   -0.00393042
     atom   19 type  3   force =    -0.00313255    0.00152593    0.00333295
     atom   20 type  3   force =     0.00313255    0.00152593   -0.00333295

     Total force =     0.015701     Total SCF correction =     0.000340


     Computing stress (Cartesian axis) and pressure

          total   stress  (Ry/bohr**3)                   (kbar)     P=       -4.57
  -0.00003415   0.00000000   0.00000130           -5.02        0.00        0.19
   0.00000000  -0.00003577   0.00000000            0.00       -5.26        0.00
   0.00000130   0.00000000  -0.00002319            0.19        0.00       -3.41


     Writing output data file ./pwscf.save/
 
     init_run     :     61.67s CPU     63.13s WALL (       1 calls)
     electrons    :   1727.57s CPU   1750.64s WALL (       1 calls)
     forces       :     16.34s CPU     16.43s WALL (       1 calls)
     stress       :    194.23s CPU    194.84s WALL (       1 calls)

     Called by init_run:
     wfcinit      :     57.58s CPU     58.94s WALL (       1 calls)
     potinit      :      1.32s CPU      1.34s WALL (       1 calls)
     hinit0       :      1.85s CPU      1.87s WALL (       1 calls)

     Called by electrons:
     c_bands      :   1441.56s CPU   1460.89s WALL (      10 calls)
     sum_band     :    280.86s CPU    283.72s WALL (      10 calls)
     v_of_rho     :      1.49s CPU      1.51s WALL (      10 calls)
     newd         :      2.64s CPU      3.03s WALL (      10 calls)
     PAW_pot      :      0.88s CPU      0.89s WALL (      10 calls)
     mix_rho      :      0.33s CPU      0.34s WALL (      10 calls)

     Called by c_bands:
     init_us_2    :     12.86s CPU     12.92s WALL (    1173 calls)
     cegterg      :   1373.41s CPU   1392.16s WALL (     510 calls)

     Called by *egterg:
     cdiaghg      :     81.17s CPU     81.89s WALL (    2700 calls)
     h_psi        :   1020.55s CPU   1033.39s WALL (    2802 calls)
     s_psi        :     59.72s CPU     59.89s WALL (    2802 calls)
     g_psi        :      2.80s CPU      2.82s WALL (    2241 calls)

     Called by h_psi:
     h_psi:calbec :     62.77s CPU     62.96s WALL (    2802 calls)
     vloc_psi     :    889.42s CPU    897.49s WALL (    2802 calls)
     add_vuspsi   :     60.83s CPU     61.01s WALL (    2802 calls)

     General routines
     calbec       :    148.04s CPU    148.47s WALL (    3567 calls)
     fft          :      1.54s CPU      1.55s WALL (     154 calls)
     ffts         :      0.12s CPU      0.12s WALL (      20 calls)
     fftw         :    937.93s CPU    946.01s WALL (  442990 calls)
     interpolate  :      0.18s CPU      0.18s WALL (      10 calls)
 
     Parallel routines
     fft_scatt_xy :    114.20s CPU    115.24s WALL (  443164 calls)
     fft_scatt_yz :    464.18s CPU    468.27s WALL (  443164 calls)
 
     PWSCF        :  33m31.72s CPU  34m11.05s WALL

 
   This run was terminated on:  18:41:57   2Aug2021            

=------------------------------------------------------------------------------=
   JOB DONE.
=------------------------------------------------------------------------------=
