
     Program PWSCF v.6.7MaX starts on  2Aug2021 at 18: 3:13 

     This program is part of the open-source Quantum ESPRESSO suite
     for quantum simulation of materials; please cite
         "P. Giannozzi et al., J. Phys.:Condens. Matter 21 395502 (2009);
         "P. Giannozzi et al., J. Phys.:Condens. Matter 29 465901 (2017);
          URL http://www.quantum-espresso.org", 
     in publications or presentations arising from this work. More details at
     http://www.quantum-espresso.org/quote

     Parallel version (MPI), running on    48 processors

     MPI processes distributed on     2 nodes
     K-points division:     npool     =       2
     R & G space division:  proc/nbgrp/npool/nimage =      24
     Waiting for input...
     Reading input from standard input
Warning: card &CELL ignored
Warning: card CELL_DYNAMICS             = 'BFGS', ignored
Warning: card PRESS                     = '0.0', ignored
Warning: card PRESS_CONV_THR            = '0.5', ignored
Warning: card / ignored
     Message from routine read_cards :
     DEPRECATED: no units specified in CELL_PARAMETERS card

     Current dimensions of program PWSCF are:
     Max number of different atomic species (ntypx) = 10
     Max number of k-points (npk) =  40000
     Max angular momentum in pseudopotentials (lmaxx) =  3
     Message from routine cell_base_init:
     DEPRECATED: use true lattice parameter, not A to a.u. conversion factor
 end of file reached, closing tag not found
     file Er.pbe-spdn-kjpaw_psl.1.0.0.UPF: wavefunction(s)  6S 5D renormalized
     file Br.pbe-dn-kjpaw_psl.1.0.0.UPF: wavefunction(s)  4S 4P 3D renormalized

     Subspace diagonalization in iterative solution of the eigenvalue problem:
     a serial algorithm will be used

     Found symmetry operation: I + ( -0.5000 -0.5000  0.0000)
     This is a supercell, fractional translations are disabled
     Message from routine setup:
     using ibrav=0 with symmetry is DISCOURAGED, use correct ibrav instead
 
     Parallelization info
     --------------------
     sticks:   dense  smooth     PW     G-vecs:    dense   smooth      PW
     Min         395     316     86                20762    14856    2144
     Max         396     317     87                20766    14859    2149
     Sum        9495    7603   2085               498349   356595   51527
 


     bravais-lattice index     =            0
     lattice parameter (alat)  =       1.8897  a.u.
     unit-cell volume          =    3688.3023 (a.u.)^3
     number of atoms/cell      =           20
     number of atomic types    =            3
     number of electrons       =       244.00
     number of Kohn-Sham states=          146
     kinetic-energy cutoff     =      80.0000  Ry
     charge density cutoff     =     400.0000  Ry
     scf convergence threshold =      1.0E-08
     mixing beta               =       0.4000
     number of iterations used =            8  plain     mixing
     Exchange-correlation= SLA  PW   PBX  PBC
                           (   1   4   3   4   0   0   0)

     celldm(1)=   1.889726  celldm(2)=   0.000000  celldm(3)=   0.000000
     celldm(4)=   0.000000  celldm(5)=   0.000000  celldm(6)=   0.000000

     crystal axes: (cart. coord. in units of alat)
               a(1) = (   6.967356   0.000000   0.000000 )  
               a(2) = (   0.000000  11.998880   0.000000 )  
               a(3) = (  -2.324723   0.000000   6.537643 )  

     reciprocal axes: (cart. coord. in units 2 pi/alat)
               b(1) = (  0.143526  0.000000  0.051037 )  
               b(2) = (  0.000000  0.083341  0.000000 )  
               b(3) = (  0.000000  0.000000  0.152960 )  


     PseudoPot. # 1 for Li read from file:
     /central/groups/SeeGroup/qe_pseudopotentials/Li.pbe-s-kjpaw_psl.1.0.0.UPF
     MD5 check sum: cc502796ee09d8b62ac346ee26e59beb
     Pseudo is Projector augmented-wave, Zval =  3.0
     Generated using &quot;atomic&quot; code by A. Dal Corso  v.6.3
     Shape of augmentation charge: PSQ
     Using radial grid of 1017 points,  4 beta functions with: 
                l(1) =   0
                l(2) =   0
                l(3) =   1
                l(4) =   1
     Q(r) pseudized with 0 coefficients 


     PseudoPot. # 2 for Er read from file:
     /central/groups/SeeGroup/qe_pseudopotentials/Er.pbe-spdn-kjpaw_psl.1.0.0.UPF
     MD5 check sum: a923254af2aef992cff3e18bc73f2922
     Pseudo is Projector augmented-wave + core cor, Zval = 11.0
     Generated using &quot;atomic&quot; code by A. Dal Corso  v.6.2.2
     Shape of augmentation charge: PSQ
     Using radial grid of 1267 points,  6 beta functions with: 
                l(1) =   0
                l(2) =   0
                l(3) =   1
                l(4) =   1
                l(5) =   2
                l(6) =   2
     Q(r) pseudized with 0 coefficients 


     PseudoPot. # 3 for Br read from file:
     /central/groups/SeeGroup/qe_pseudopotentials/Br.pbe-dn-kjpaw_psl.1.0.0.UPF
     MD5 check sum: 4ca4ebabfd6065c7bb707b2ebe99e9b3
     Pseudo is Projector augmented-wave + core cor, Zval = 17.0
     Generated using &quot;atomic&quot; code by A. Dal Corso  v.6.3
     Shape of augmentation charge: PSQ
     Using radial grid of 1213 points,  6 beta functions with: 
                l(1) =   0
                l(2) =   0
                l(3) =   1
                l(4) =   1
                l(5) =   2
                l(6) =   2
     Q(r) pseudized with 0 coefficients 


     atomic species   valence    mass     pseudopotential
        Li             3.00     6.94100     Li( 1.00)
        Er            11.00   167.25900     Er( 1.00)
        Br            17.00    79.90400     Br( 1.00)

      2 Sym. Ops. (no inversion) found



   Cartesian axes

     site n.     atom                  positions (alat units)
         1           Li  tau(   1) = (   3.4836780   9.9564306   0.0000000  )
         2           Li  tau(   2) = (   3.4836780   2.0173957   0.0000000  )
         3           Li  tau(   3) = (   2.3213165   7.8846440   3.2688215  )
         4           Li  tau(   4) = (   0.0000000   3.9569906   0.0000000  )
         5           Li  tau(   5) = (   0.0000000   8.0168357   0.0000000  )
         6           Li  tau(   6) = (  -1.1623615   1.8852040   3.2688215  )
         7           Er  tau(   7) = (   3.4836780   5.9699947   0.0000000  )
         8           Er  tau(   8) = (   0.0000000  11.9694347   0.0000000  )
         9           Br  tau(   9) = (   3.4471523   9.9581465   5.0158758  )
        10           Br  tau(  10) = (   3.5847273   1.9854607   4.9258002  )
        11           Br  tau(  11) = (   1.0579057   1.9854607   1.6118428  )
        12           Br  tau(  12) = (   1.1954807   9.9581465   1.5217672  )
        13           Br  tau(  13) = (  -0.0150075   0.0698395   4.9769442  )
        14           Br  tau(  14) = (   4.6576405   0.0698395   1.5606988  )
        15           Br  tau(  15) = (  -0.0365257   3.9587065   5.0158758  )
        16           Br  tau(  16) = (   0.1010493   7.9849007   4.9258002  )
        17           Br  tau(  17) = (   4.5415837   7.9849007   1.6118428  )
        18           Br  tau(  18) = (   4.6791587   3.9587065   1.5217672  )
        19           Br  tau(  19) = (   3.4686705   6.0692795   4.9769442  )
        20           Br  tau(  20) = (   1.1739625   6.0692795   1.5606988  )

     number of k points=   102  Fermi-Dirac smearing, width (Ry)=  0.0070

     Number of k-points >= 100: set verbosity='high' to print them.

     Dense  grid:   498349 G-vectors     FFT dimensions: (  90, 150,  90)

     Smooth grid:   356595 G-vectors     FFT dimensions: (  75, 135,  75)

     Estimated max dynamical RAM per process >     276.94 MB

     Estimated total dynamical RAM >      12.98 GB

     Initial potential from superposition of free atoms

     starting charge  243.93496, renormalised to  244.00000
     Starting wfcs are  164 randomized atomic wfcs
     Checking if some PAW data can be deallocated... 

     total cpu time spent up to now is       18.7 secs

     Self-consistent Calculation

     iteration #  1     ecut=    80.00 Ry     beta= 0.40
     Davidson diagonalization with overlap
     ethr =  1.00E-02,  avg # of iterations =  5.2

     Threshold (ethr) on eigenvalues was too large:
     Diagonalizing with lowered threshold

     Davidson diagonalization with overlap
     ethr =  1.16E-04,  avg # of iterations =  9.0

     total cpu time spent up to now is      143.1 secs

     total energy              =   -6740.51665132 Ry
     estimated scf accuracy    <       0.28204212 Ry

     iteration #  2     ecut=    80.00 Ry     beta= 0.40
     Davidson diagonalization with overlap
     ethr =  1.16E-04,  avg # of iterations =  2.0

     total cpu time spent up to now is      188.2 secs

     total energy              =   -6740.54254838 Ry
     estimated scf accuracy    <       0.03907639 Ry

     iteration #  3     ecut=    80.00 Ry     beta= 0.40
     Davidson diagonalization with overlap
     c_bands:  1 eigenvalues not converged
     ethr =  1.60E-05,  avg # of iterations =  7.6

     total cpu time spent up to now is      254.7 secs

     total energy              =   -6740.54761086 Ry
     estimated scf accuracy    <       0.00547531 Ry

     iteration #  4     ecut=    80.00 Ry     beta= 0.40
     Davidson diagonalization with overlap
     c_bands:  1 eigenvalues not converged
     ethr =  2.24E-06,  avg # of iterations =  8.9

     total cpu time spent up to now is      323.4 secs

     total energy              =   -6740.54828080 Ry
     estimated scf accuracy    <       0.00075259 Ry

     iteration #  5     ecut=    80.00 Ry     beta= 0.40
     Davidson diagonalization with overlap
     ethr =  3.08E-07,  avg # of iterations =  2.1

     total cpu time spent up to now is      367.1 secs

     total energy              =   -6740.54840818 Ry
     estimated scf accuracy    <       0.00016699 Ry

     iteration #  6     ecut=    80.00 Ry     beta= 0.40
     Davidson diagonalization with overlap
     ethr =  6.84E-08,  avg # of iterations =  2.0

     total cpu time spent up to now is      410.6 secs

     total energy              =   -6740.54842458 Ry
     estimated scf accuracy    <       0.00003273 Ry

     iteration #  7     ecut=    80.00 Ry     beta= 0.40
     Davidson diagonalization with overlap
     ethr =  1.34E-08,  avg # of iterations =  2.0

     total cpu time spent up to now is      454.2 secs

     total energy              =   -6740.54842617 Ry
     estimated scf accuracy    <       0.00000102 Ry

     iteration #  8     ecut=    80.00 Ry     beta= 0.40
     Davidson diagonalization with overlap
     ethr =  4.16E-10,  avg # of iterations =  2.0

     total cpu time spent up to now is      502.3 secs

     total energy              =   -6740.54842629 Ry
     estimated scf accuracy    <       0.00000011 Ry

     iteration #  9     ecut=    80.00 Ry     beta= 0.40
     Davidson diagonalization with overlap
     ethr =  4.62E-11,  avg # of iterations =  2.0

     total cpu time spent up to now is      546.7 secs

     End of self-consistent calculation

     Number of k-points >= 100: set verbosity='high' to print the bands.

     the Fermi energy is     4.8323 ev

!    total energy              =   -6740.54842632 Ry

     total all-electron energy =   -114993.564384 Ry
     estimated scf accuracy    <          8.3E-09 Ry
     smearing contrib. (-TS)   =      -0.00000000 Ry
     internal energy E=F+TS    =   -6740.54842632 Ry

     The total energy is F=E-TS. E is the sum of the following terms:
     one-electron contribution =   -3515.74907148 Ry
     hartree contribution      =    1687.86934326 Ry
     xc contribution           =    -503.21615448 Ry
     ewald contribution        =   -1690.68325647 Ry
     one-center paw contrib.   =   -2718.76928716 Ry

     convergence has been achieved in   9 iterations

     Forces acting on atoms (cartesian axes, Ry/au):

     atom    1 type  1   force =     0.00000000   -0.00204590    0.00000000
     atom    2 type  1   force =     0.00000000    0.00041222    0.00000000
     atom    3 type  1   force =     0.00000000   -0.00038008    0.00000000
     atom    4 type  1   force =     0.00000000   -0.00204274    0.00000000
     atom    5 type  1   force =     0.00000000    0.00041575    0.00000000
     atom    6 type  1   force =     0.00000000   -0.00038183    0.00000000
     atom    7 type  2   force =     0.00000000    0.00081814    0.00000000
     atom    8 type  2   force =     0.00000000    0.00082221    0.00000000
     atom    9 type  3   force =     0.00088236    0.00153258    0.00385696
     atom   10 type  3   force =     0.00317131   -0.00241513    0.00127803
     atom   11 type  3   force =    -0.00317131   -0.00241513   -0.00127803
     atom   12 type  3   force =    -0.00088236    0.00153258   -0.00385696
     atom   13 type  3   force =    -0.00317189    0.00144918    0.00332861
     atom   14 type  3   force =     0.00317189    0.00144918   -0.00332861
     atom   15 type  3   force =     0.00091189    0.00153346    0.00391984
     atom   16 type  3   force =     0.00316437   -0.00239816    0.00128747
     atom   17 type  3   force =    -0.00316437   -0.00239816   -0.00128747
     atom   18 type  3   force =    -0.00091189    0.00153346   -0.00391984
     atom   19 type  3   force =    -0.00313676    0.00148919    0.00335075
     atom   20 type  3   force =     0.00313676    0.00148919   -0.00335075

     Total force =     0.015697     Total SCF correction =     0.000303


     Computing stress (Cartesian axis) and pressure

          total   stress  (Ry/bohr**3)                   (kbar)     P=       -7.49
  -0.00005407   0.00000000   0.00000130           -7.95        0.00        0.19
   0.00000000  -0.00005566   0.00000000            0.00       -8.19        0.00
   0.00000130   0.00000000  -0.00004311            0.19        0.00       -6.34


     Writing output data file ./pwscf.save/
 
     init_run     :     17.96s CPU     18.26s WALL (       1 calls)
     electrons    :    523.57s CPU    528.19s WALL (       1 calls)
     forces       :      6.53s CPU      6.57s WALL (       1 calls)
     stress       :     65.33s CPU     65.51s WALL (       1 calls)

     Called by init_run:
     wfcinit      :     16.41s CPU     16.67s WALL (       1 calls)
     potinit      :      0.59s CPU      0.60s WALL (       1 calls)
     hinit0       :      0.67s CPU      0.67s WALL (       1 calls)

     Called by electrons:
     c_bands      :    463.66s CPU    467.34s WALL (      10 calls)
     sum_band     :     57.81s CPU     58.54s WALL (      10 calls)
     v_of_rho     :      0.37s CPU      0.38s WALL (      10 calls)
     newd         :      0.91s CPU      0.93s WALL (      10 calls)
     PAW_pot      :      0.85s CPU      0.86s WALL (      10 calls)
     mix_rho      :      0.08s CPU      0.08s WALL (      10 calls)

     Called by c_bands:
     init_us_2    :      4.68s CPU      4.70s WALL (    1173 calls)
     cegterg      :    426.72s CPU    430.09s WALL (     510 calls)

     Called by *egterg:
     cdiaghg      :     81.33s CPU     81.62s WALL (    2696 calls)
     h_psi        :    240.52s CPU    243.45s WALL (    2798 calls)
     s_psi        :     22.25s CPU     22.33s WALL (    2798 calls)
     g_psi        :      0.92s CPU      0.93s WALL (    2237 calls)

     Called by h_psi:
     h_psi:calbec :     24.07s CPU     24.17s WALL (    2798 calls)
     vloc_psi     :    191.36s CPU    194.06s WALL (    2798 calls)
     add_vuspsi   :     22.38s CPU     22.46s WALL (    2798 calls)

     General routines
     calbec       :     54.57s CPU     54.77s WALL (    3563 calls)
     fft          :      0.28s CPU      0.29s WALL (     154 calls)
     ffts         :      0.07s CPU      0.07s WALL (      20 calls)
     fftw         :    214.58s CPU    217.61s WALL (  440606 calls)
     interpolate  :      0.08s CPU      0.08s WALL (      10 calls)
 
     Parallel routines
     fft_scatt_xy :     25.92s CPU     26.22s WALL (  440780 calls)
     fft_scatt_yz :     59.69s CPU     60.51s WALL (  440780 calls)
 
     PWSCF        :  10m17.44s CPU  10m34.08s WALL

 
   This run was terminated on:  18:13:47   2Aug2021            

=------------------------------------------------------------------------------=
   JOB DONE.
=------------------------------------------------------------------------------=
