
     Program PWSCF v.6.7MaX starts on  2Aug2021 at 17: 3:33 

     This program is part of the open-source Quantum ESPRESSO suite
     for quantum simulation of materials; please cite
         "P. Giannozzi et al., J. Phys.:Condens. Matter 21 395502 (2009);
         "P. Giannozzi et al., J. Phys.:Condens. Matter 29 465901 (2017);
          URL http://www.quantum-espresso.org", 
     in publications or presentations arising from this work. More details at
     http://www.quantum-espresso.org/quote

     Parallel version (MPI), running on    48 processors

     MPI processes distributed on     2 nodes
     K-points division:     npool     =       2
     R & G space division:  proc/nbgrp/npool/nimage =      24
     Waiting for input...
     Reading input from standard input
Warning: card &CELL ignored
Warning: card CELL_DYNAMICS             = 'BFGS', ignored
Warning: card PRESS                     = '0.0', ignored
Warning: card PRESS_CONV_THR            = '0.5', ignored
Warning: card / ignored
     Message from routine read_cards :
     DEPRECATED: no units specified in CELL_PARAMETERS card

     Current dimensions of program PWSCF are:
     Max number of different atomic species (ntypx) = 10
     Max number of k-points (npk) =  40000
     Max angular momentum in pseudopotentials (lmaxx) =  3
     Message from routine cell_base_init:
     DEPRECATED: use true lattice parameter, not A to a.u. conversion factor
 end of file reached, closing tag not found
     file Er.pbe-spdn-kjpaw_psl.1.0.0.UPF: wavefunction(s)  6S 5D renormalized
     file Br.pbe-dn-kjpaw_psl.1.0.0.UPF: wavefunction(s)  4S 4P 3D renormalized

     Subspace diagonalization in iterative solution of the eigenvalue problem:
     a serial algorithm will be used

     Found symmetry operation: I + ( -0.5000 -0.5000  0.0000)
     This is a supercell, fractional translations are disabled
     Message from routine setup:
     using ibrav=0 with symmetry is DISCOURAGED, use correct ibrav instead
     Message from routine divide_et_impera:
     suboptimal parallelization: some nodes have no k-points
 
     Parallelization info
     --------------------
     sticks:   dense  smooth     PW     G-vecs:    dense   smooth      PW
     Min         792     633    164                58718    42017    5570
     Max         793     634    165                58720    42018    5573
     Sum       19015   15197   3951              1409259  1008415  133715
 


     bravais-lattice index     =            0
     lattice parameter (alat)  =       1.8897  a.u.
     unit-cell volume          =    3688.3023 (a.u.)^3
     number of atoms/cell      =           20
     number of atomic types    =            3
     number of electrons       =       244.00
     number of Kohn-Sham states=          146
     kinetic-energy cutoff     =     160.0000  Ry
     charge density cutoff     =     800.0000  Ry
     scf convergence threshold =      1.0E-08
     mixing beta               =       0.4000
     number of iterations used =            8  plain     mixing
     Exchange-correlation= SLA  PW   PBX  PBC
                           (   1   4   3   4   0   0   0)

     celldm(1)=   1.889726  celldm(2)=   0.000000  celldm(3)=   0.000000
     celldm(4)=   0.000000  celldm(5)=   0.000000  celldm(6)=   0.000000

     crystal axes: (cart. coord. in units of alat)
               a(1) = (   6.967356   0.000000   0.000000 )  
               a(2) = (   0.000000  11.998880   0.000000 )  
               a(3) = (  -2.324723   0.000000   6.537643 )  

     reciprocal axes: (cart. coord. in units 2 pi/alat)
               b(1) = (  0.143526  0.000000  0.051037 )  
               b(2) = (  0.000000  0.083341  0.000000 )  
               b(3) = (  0.000000  0.000000  0.152960 )  


     PseudoPot. # 1 for Li read from file:
     /central/groups/SeeGroup/qe_pseudopotentials/Li.pbe-s-kjpaw_psl.1.0.0.UPF
     MD5 check sum: cc502796ee09d8b62ac346ee26e59beb
     Pseudo is Projector augmented-wave, Zval =  3.0
     Generated using &quot;atomic&quot; code by A. Dal Corso  v.6.3
     Shape of augmentation charge: PSQ
     Using radial grid of 1017 points,  4 beta functions with: 
                l(1) =   0
                l(2) =   0
                l(3) =   1
                l(4) =   1
     Q(r) pseudized with 0 coefficients 


     PseudoPot. # 2 for Er read from file:
     /central/groups/SeeGroup/qe_pseudopotentials/Er.pbe-spdn-kjpaw_psl.1.0.0.UPF
     MD5 check sum: a923254af2aef992cff3e18bc73f2922
     Pseudo is Projector augmented-wave + core cor, Zval = 11.0
     Generated using &quot;atomic&quot; code by A. Dal Corso  v.6.2.2
     Shape of augmentation charge: PSQ
     Using radial grid of 1267 points,  6 beta functions with: 
                l(1) =   0
                l(2) =   0
                l(3) =   1
                l(4) =   1
                l(5) =   2
                l(6) =   2
     Q(r) pseudized with 0 coefficients 


     PseudoPot. # 3 for Br read from file:
     /central/groups/SeeGroup/qe_pseudopotentials/Br.pbe-dn-kjpaw_psl.1.0.0.UPF
     MD5 check sum: 4ca4ebabfd6065c7bb707b2ebe99e9b3
     Pseudo is Projector augmented-wave + core cor, Zval = 17.0
     Generated using &quot;atomic&quot; code by A. Dal Corso  v.6.3
     Shape of augmentation charge: PSQ
     Using radial grid of 1213 points,  6 beta functions with: 
                l(1) =   0
                l(2) =   0
                l(3) =   1
                l(4) =   1
                l(5) =   2
                l(6) =   2
     Q(r) pseudized with 0 coefficients 


     atomic species   valence    mass     pseudopotential
        Li             3.00     6.94100     Li( 1.00)
        Er            11.00   167.25900     Er( 1.00)
        Br            17.00    79.90400     Br( 1.00)

      2 Sym. Ops. (no inversion) found



   Cartesian axes

     site n.     atom                  positions (alat units)
         1           Li  tau(   1) = (   3.4836780   9.9564306   0.0000000  )
         2           Li  tau(   2) = (   3.4836780   2.0173957   0.0000000  )
         3           Li  tau(   3) = (   2.3213165   7.8846440   3.2688215  )
         4           Li  tau(   4) = (   0.0000000   3.9569906   0.0000000  )
         5           Li  tau(   5) = (   0.0000000   8.0168357   0.0000000  )
         6           Li  tau(   6) = (  -1.1623615   1.8852040   3.2688215  )
         7           Er  tau(   7) = (   3.4836780   5.9699947   0.0000000  )
         8           Er  tau(   8) = (   0.0000000  11.9694347   0.0000000  )
         9           Br  tau(   9) = (   3.4471523   9.9581465   5.0158758  )
        10           Br  tau(  10) = (   3.5847273   1.9854607   4.9258002  )
        11           Br  tau(  11) = (   1.0579057   1.9854607   1.6118428  )
        12           Br  tau(  12) = (   1.1954807   9.9581465   1.5217672  )
        13           Br  tau(  13) = (  -0.0150075   0.0698395   4.9769442  )
        14           Br  tau(  14) = (   4.6576405   0.0698395   1.5606988  )
        15           Br  tau(  15) = (  -0.0365257   3.9587065   5.0158758  )
        16           Br  tau(  16) = (   0.1010493   7.9849007   4.9258002  )
        17           Br  tau(  17) = (   4.5415837   7.9849007   1.6118428  )
        18           Br  tau(  18) = (   4.6791587   3.9587065   1.5217672  )
        19           Br  tau(  19) = (   3.4686705   6.0692795   4.9769442  )
        20           Br  tau(  20) = (   1.1739625   6.0692795   1.5606988  )

     number of k points=     1  Fermi-Dirac smearing, width (Ry)=  0.0070
                       cart. coord. in units 2pi/alat
        k(    1) = (   0.0000000   0.0000000   0.0000000), wk =   2.0000000

     Dense  grid:  1409259 G-vectors     FFT dimensions: ( 120, 216, 120)

     Smooth grid:  1008415 G-vectors     FFT dimensions: ( 108, 192, 108)

     Estimated max dynamical RAM per process >     178.37 MB

     Estimated total dynamical RAM >       8.36 GB

     Initial potential from superposition of free atoms

     starting charge  243.93496, renormalised to  244.00000
     Starting wfcs are  164 randomized atomic wfcs
     Checking if some PAW data can be deallocated... 

     total cpu time spent up to now is        5.6 secs

     Self-consistent Calculation

     iteration #  1     ecut=   160.00 Ry     beta= 0.40
     Davidson diagonalization with overlap
     ethr =  1.00E-02,  avg # of iterations =  7.0

     Threshold (ethr) on eigenvalues was too large:
     Diagonalizing with lowered threshold

     Davidson diagonalization with overlap
     ethr =  1.27E-04,  avg # of iterations =  5.0

     total cpu time spent up to now is       14.2 secs

     total energy              =   -6740.46561472 Ry
     estimated scf accuracy    <       0.30728406 Ry

     iteration #  2     ecut=   160.00 Ry     beta= 0.40
     Davidson diagonalization with overlap
     ethr =  1.26E-04,  avg # of iterations =  2.0

     total cpu time spent up to now is       18.3 secs

     total energy              =   -6740.49382456 Ry
     estimated scf accuracy    <       0.04285752 Ry

     iteration #  3     ecut=   160.00 Ry     beta= 0.40
     Davidson diagonalization with overlap
     ethr =  1.76E-05,  avg # of iterations = 14.0

     total cpu time spent up to now is       23.7 secs

     total energy              =   -6740.49949236 Ry
     estimated scf accuracy    <       0.00588018 Ry

     iteration #  4     ecut=   160.00 Ry     beta= 0.40
     Davidson diagonalization with overlap
     ethr =  2.41E-06,  avg # of iterations =  5.0

     total cpu time spent up to now is       28.1 secs

     total energy              =   -6740.50025314 Ry
     estimated scf accuracy    <       0.00086876 Ry

     iteration #  5     ecut=   160.00 Ry     beta= 0.40
     Davidson diagonalization with overlap
     ethr =  3.56E-07,  avg # of iterations =  2.0

     total cpu time spent up to now is       32.2 secs

     total energy              =   -6740.50040579 Ry
     estimated scf accuracy    <       0.00019873 Ry

     iteration #  6     ecut=   160.00 Ry     beta= 0.40
     Davidson diagonalization with overlap
     ethr =  8.14E-08,  avg # of iterations =  2.0

     total cpu time spent up to now is       36.2 secs

     total energy              =   -6740.50042531 Ry
     estimated scf accuracy    <       0.00003193 Ry

     iteration #  7     ecut=   160.00 Ry     beta= 0.40
     Davidson diagonalization with overlap
     ethr =  1.31E-08,  avg # of iterations =  2.0

     total cpu time spent up to now is       40.2 secs

     total energy              =   -6740.50042725 Ry
     estimated scf accuracy    <       0.00000118 Ry

     iteration #  8     ecut=   160.00 Ry     beta= 0.40
     Davidson diagonalization with overlap
     ethr =  4.84E-10,  avg # of iterations =  2.0

     total cpu time spent up to now is       44.4 secs

     total energy              =   -6740.50042753 Ry
     estimated scf accuracy    <       0.00000010 Ry

     iteration #  9     ecut=   160.00 Ry     beta= 0.40
     Davidson diagonalization with overlap
     ethr =  4.26E-11,  avg # of iterations =  2.0

     total cpu time spent up to now is       48.5 secs

     total energy              =   -6740.50042760 Ry
     estimated scf accuracy    <       0.00000001 Ry

     iteration # 10     ecut=   160.00 Ry     beta= 0.40
     Davidson diagonalization with overlap
     ethr =  4.32E-12,  avg # of iterations =  3.0

     total cpu time spent up to now is       52.8 secs

     End of self-consistent calculation

          k = 0.0000 0.0000 0.0000 (126097 PWs)   bands (ev):

   -56.2068 -56.2067 -56.2067 -56.2067 -56.2046 -56.2046 -56.2046 -56.2046
   -56.1787 -56.1787 -56.1787 -56.1787 -56.1752 -56.1752 -56.1751 -56.1751
   -56.1679 -56.1679 -56.1679 -56.1679 -56.1669 -56.1669 -56.1669 -56.1668
   -56.1601 -56.1601 -56.1600 -56.1600 -56.1558 -56.1558 -56.1557 -56.1557
   -56.1542 -56.1542 -56.1542 -56.1542 -56.1492 -56.1492 -56.1492 -56.1491
   -56.1394 -56.1394 -56.1394 -56.1393 -56.1240 -56.1240 -56.1239 -56.1239
   -56.1222 -56.1221 -56.1221 -56.1221 -56.1151 -56.1151 -56.1151 -56.1150
   -56.1141 -56.1141 -56.1141 -56.1141 -46.9252 -46.9252 -42.1088 -42.1087
   -41.8374 -41.8374 -41.7762 -41.7762 -20.7639 -20.7639 -20.7445 -20.7445
   -20.7376 -20.7373 -10.6796 -10.4955 -10.3518 -10.2409 -10.2302 -10.2211
   -10.1994 -10.1958 -10.1834 -10.1159 -10.1096 -10.0888  -0.1368  -0.1267
     0.2540   0.2819   0.2927   0.4324   0.4785   0.6445   0.7049   0.7724
     0.8821   0.8869   0.8965   1.0358   1.1478   1.2787   1.2819   1.2821
     1.3032   1.5088   1.5534   1.7189   1.7762   1.9733   2.0161   2.0572
     2.0937   2.1072   2.2289   2.2820   2.3660   2.5055   2.5515   2.5690
     2.6091   2.6103   7.0613   7.3147   7.4650   7.4770   7.4791   7.5377
     7.5693   8.7351   8.7652   8.8196   9.1318   9.1802   9.3747   9.4093
     9.5040   9.7462   9.9542  10.3345  10.3415  10.3865  10.6851  10.8747
    10.9671  11.1211

     the Fermi energy is     4.8977 ev

!    total energy              =   -6740.50042763 Ry

     total all-electron energy =   -114993.516385 Ry
     estimated scf accuracy    <          8.1E-10 Ry
     smearing contrib. (-TS)   =      -0.00000000 Ry
     internal energy E=F+TS    =   -6740.50042763 Ry

     The total energy is F=E-TS. E is the sum of the following terms:
     one-electron contribution =   -3516.47407458 Ry
     hartree contribution      =    1688.70939260 Ry
     xc contribution           =    -503.29858226 Ry
     ewald contribution        =   -1690.68325647 Ry
     one-center paw contrib.   =   -2718.75390693 Ry

     convergence has been achieved in  10 iterations

     Forces acting on atoms (cartesian axes, Ry/au):

     atom    1 type  1   force =     0.00000000   -0.00198207    0.00000000
     atom    2 type  1   force =     0.00000000    0.00037350    0.00000000
     atom    3 type  1   force =     0.00000000   -0.00157628    0.00000000
     atom    4 type  1   force =     0.00000000   -0.00198310    0.00000000
     atom    5 type  1   force =     0.00000000    0.00037377    0.00000000
     atom    6 type  1   force =     0.00000000   -0.00157566    0.00000000
     atom    7 type  2   force =     0.00000000   -0.00013893    0.00000000
     atom    8 type  2   force =     0.00000000   -0.00014276    0.00000000
     atom    9 type  3   force =     0.00030976    0.00560901    0.00699558
     atom   10 type  3   force =     0.00565452   -0.00179110    0.00174672
     atom   11 type  3   force =    -0.00565452   -0.00179110   -0.00174672
     atom   12 type  3   force =    -0.00030976    0.00560901   -0.00699558
     atom   13 type  3   force =    -0.00423466   -0.00212816    0.00526053
     atom   14 type  3   force =     0.00423466   -0.00212816   -0.00526053
     atom   15 type  3   force =     0.00031105    0.00558438    0.00700879
     atom   16 type  3   force =     0.00565135   -0.00180141    0.00173760
     atom   17 type  3   force =    -0.00565135   -0.00180141   -0.00173760
     atom   18 type  3   force =    -0.00031105    0.00558438   -0.00700879
     atom   19 type  3   force =    -0.00422362   -0.00214696    0.00527407
     atom   20 type  3   force =     0.00422362   -0.00214696   -0.00527407

     Total force =     0.026241     Total SCF correction =     0.000205


     Computing stress (Cartesian axis) and pressure

          total   stress  (Ry/bohr**3)                   (kbar)     P=        0.39
  -0.00004515   0.00000000   0.00008617           -6.64        0.00       12.68
   0.00000000   0.00002578   0.00000000            0.00        3.79        0.00
   0.00008617   0.00000000   0.00002730           12.68        0.00        4.02


     Writing output data file ./pwscf.save/
 
     init_run     :      5.18s CPU      5.32s WALL (       1 calls)
     electrons    :     45.72s CPU     47.86s WALL (       1 calls)
     forces       :      2.65s CPU      2.71s WALL (       1 calls)
     stress       :      9.68s CPU      9.81s WALL (       1 calls)

     Called by init_run:
     wfcinit      :      1.10s CPU      1.14s WALL (       1 calls)
     potinit      :      1.38s CPU      1.39s WALL (       1 calls)
     hinit0       :      1.85s CPU      1.86s WALL (       1 calls)

     Called by electrons:
     c_bands      :     29.87s CPU     30.31s WALL (      11 calls)
     sum_band     :      9.93s CPU     10.55s WALL (      11 calls)
     v_of_rho     :      1.65s CPU      1.67s WALL (      11 calls)
     newd         :      3.15s CPU      3.56s WALL (      11 calls)
     PAW_pot      :      0.91s CPU      0.92s WALL (      11 calls)
     mix_rho      :      0.39s CPU      0.39s WALL (      11 calls)

     Called by c_bands:
     init_us_2    :      0.26s CPU      0.27s WALL (      23 calls)
     cegterg      :     28.76s CPU     29.20s WALL (      11 calls)

     Called by *egterg:
     cdiaghg      :      1.60s CPU      1.64s WALL (      56 calls)
     h_psi        :     21.39s CPU     21.68s WALL (      58 calls)
     s_psi        :      1.24s CPU      1.24s WALL (      58 calls)
     g_psi        :      0.06s CPU      0.06s WALL (      46 calls)

     Called by h_psi:
     h_psi:calbec :      1.30s CPU      1.30s WALL (      58 calls)
     vloc_psi     :     18.67s CPU     18.85s WALL (      58 calls)
     add_vuspsi   :      1.26s CPU      1.27s WALL (      58 calls)

     General routines
     calbec       :      1.99s CPU      2.00s WALL (      74 calls)
     fft          :      1.69s CPU      1.72s WALL (     167 calls)
     ffts         :      0.13s CPU      0.13s WALL (      22 calls)
     fftw         :     20.04s CPU     20.22s WALL (    9416 calls)
     interpolate  :      0.19s CPU      0.19s WALL (      11 calls)
 
     Parallel routines
     fft_scatt_xy :      2.61s CPU      2.63s WALL (    9605 calls)
     fft_scatt_yz :     10.99s CPU     11.09s WALL (    9605 calls)
 
     PWSCF        :   1m 3.74s CPU   1m 6.68s WALL

 
   This run was terminated on:  17: 4:40   2Aug2021            

=------------------------------------------------------------------------------=
   JOB DONE.
=------------------------------------------------------------------------------=
