
     Program PWSCF v.6.7MaX starts on  2Aug2021 at 18: 6:48 

     This program is part of the open-source Quantum ESPRESSO suite
     for quantum simulation of materials; please cite
         "P. Giannozzi et al., J. Phys.:Condens. Matter 21 395502 (2009);
         "P. Giannozzi et al., J. Phys.:Condens. Matter 29 465901 (2017);
          URL http://www.quantum-espresso.org", 
     in publications or presentations arising from this work. More details at
     http://www.quantum-espresso.org/quote

     Parallel version (MPI), running on    48 processors

     MPI processes distributed on     2 nodes
     K-points division:     npool     =       2
     R & G space division:  proc/nbgrp/npool/nimage =      24
     Waiting for input...
     Reading input from standard input
Warning: card &CELL ignored
Warning: card CELL_DYNAMICS             = 'BFGS', ignored
Warning: card PRESS                     = '0.0', ignored
Warning: card PRESS_CONV_THR            = '0.5', ignored
Warning: card / ignored
     Message from routine read_cards :
     DEPRECATED: no units specified in CELL_PARAMETERS card

     Current dimensions of program PWSCF are:
     Max number of different atomic species (ntypx) = 10
     Max number of k-points (npk) =  40000
     Max angular momentum in pseudopotentials (lmaxx) =  3
     Message from routine cell_base_init:
     DEPRECATED: use true lattice parameter, not A to a.u. conversion factor
 end of file reached, closing tag not found
     file Er.pbe-spdn-kjpaw_psl.1.0.0.UPF: wavefunction(s)  6S 5D renormalized
     file Br.pbe-dn-kjpaw_psl.1.0.0.UPF: wavefunction(s)  4S 4P 3D renormalized

     Subspace diagonalization in iterative solution of the eigenvalue problem:
     a serial algorithm will be used

     Found symmetry operation: I + ( -0.5000 -0.5000  0.0000)
     This is a supercell, fractional translations are disabled
     Message from routine setup:
     using ibrav=0 with symmetry is DISCOURAGED, use correct ibrav instead
 
     Parallelization info
     --------------------
     sticks:   dense  smooth     PW     G-vecs:    dense   smooth      PW
     Min         693     554    148                48067    34391    4791
     Max         694     555    149                48070    34393    4795
     Sum       16649   13297   3575              1153641   825419  115051
 


     bravais-lattice index     =            0
     lattice parameter (alat)  =       1.8897  a.u.
     unit-cell volume          =    3688.3023 (a.u.)^3
     number of atoms/cell      =           20
     number of atomic types    =            3
     number of electrons       =       244.00
     number of Kohn-Sham states=          146
     kinetic-energy cutoff     =     140.0000  Ry
     charge density cutoff     =     700.0000  Ry
     scf convergence threshold =      1.0E-08
     mixing beta               =       0.4000
     number of iterations used =            8  plain     mixing
     Exchange-correlation= SLA  PW   PBX  PBC
                           (   1   4   3   4   0   0   0)

     celldm(1)=   1.889726  celldm(2)=   0.000000  celldm(3)=   0.000000
     celldm(4)=   0.000000  celldm(5)=   0.000000  celldm(6)=   0.000000

     crystal axes: (cart. coord. in units of alat)
               a(1) = (   6.967356   0.000000   0.000000 )  
               a(2) = (   0.000000  11.998880   0.000000 )  
               a(3) = (  -2.324723   0.000000   6.537643 )  

     reciprocal axes: (cart. coord. in units 2 pi/alat)
               b(1) = (  0.143526  0.000000  0.051037 )  
               b(2) = (  0.000000  0.083341  0.000000 )  
               b(3) = (  0.000000  0.000000  0.152960 )  


     PseudoPot. # 1 for Li read from file:
     /central/groups/SeeGroup/qe_pseudopotentials/Li.pbe-s-kjpaw_psl.1.0.0.UPF
     MD5 check sum: cc502796ee09d8b62ac346ee26e59beb
     Pseudo is Projector augmented-wave, Zval =  3.0
     Generated using &quot;atomic&quot; code by A. Dal Corso  v.6.3
     Shape of augmentation charge: PSQ
     Using radial grid of 1017 points,  4 beta functions with: 
                l(1) =   0
                l(2) =   0
                l(3) =   1
                l(4) =   1
     Q(r) pseudized with 0 coefficients 


     PseudoPot. # 2 for Er read from file:
     /central/groups/SeeGroup/qe_pseudopotentials/Er.pbe-spdn-kjpaw_psl.1.0.0.UPF
     MD5 check sum: a923254af2aef992cff3e18bc73f2922
     Pseudo is Projector augmented-wave + core cor, Zval = 11.0
     Generated using &quot;atomic&quot; code by A. Dal Corso  v.6.2.2
     Shape of augmentation charge: PSQ
     Using radial grid of 1267 points,  6 beta functions with: 
                l(1) =   0
                l(2) =   0
                l(3) =   1
                l(4) =   1
                l(5) =   2
                l(6) =   2
     Q(r) pseudized with 0 coefficients 


     PseudoPot. # 3 for Br read from file:
     /central/groups/SeeGroup/qe_pseudopotentials/Br.pbe-dn-kjpaw_psl.1.0.0.UPF
     MD5 check sum: 4ca4ebabfd6065c7bb707b2ebe99e9b3
     Pseudo is Projector augmented-wave + core cor, Zval = 17.0
     Generated using &quot;atomic&quot; code by A. Dal Corso  v.6.3
     Shape of augmentation charge: PSQ
     Using radial grid of 1213 points,  6 beta functions with: 
                l(1) =   0
                l(2) =   0
                l(3) =   1
                l(4) =   1
                l(5) =   2
                l(6) =   2
     Q(r) pseudized with 0 coefficients 


     atomic species   valence    mass     pseudopotential
        Li             3.00     6.94100     Li( 1.00)
        Er            11.00   167.25900     Er( 1.00)
        Br            17.00    79.90400     Br( 1.00)

      2 Sym. Ops. (no inversion) found



   Cartesian axes

     site n.     atom                  positions (alat units)
         1           Li  tau(   1) = (   3.4836780   9.9564306   0.0000000  )
         2           Li  tau(   2) = (   3.4836780   2.0173957   0.0000000  )
         3           Li  tau(   3) = (   2.3213165   7.8846440   3.2688215  )
         4           Li  tau(   4) = (   0.0000000   3.9569906   0.0000000  )
         5           Li  tau(   5) = (   0.0000000   8.0168357   0.0000000  )
         6           Li  tau(   6) = (  -1.1623615   1.8852040   3.2688215  )
         7           Er  tau(   7) = (   3.4836780   5.9699947   0.0000000  )
         8           Er  tau(   8) = (   0.0000000  11.9694347   0.0000000  )
         9           Br  tau(   9) = (   3.4471523   9.9581465   5.0158758  )
        10           Br  tau(  10) = (   3.5847273   1.9854607   4.9258002  )
        11           Br  tau(  11) = (   1.0579057   1.9854607   1.6118428  )
        12           Br  tau(  12) = (   1.1954807   9.9581465   1.5217672  )
        13           Br  tau(  13) = (  -0.0150075   0.0698395   4.9769442  )
        14           Br  tau(  14) = (   4.6576405   0.0698395   1.5606988  )
        15           Br  tau(  15) = (  -0.0365257   3.9587065   5.0158758  )
        16           Br  tau(  16) = (   0.1010493   7.9849007   4.9258002  )
        17           Br  tau(  17) = (   4.5415837   7.9849007   1.6118428  )
        18           Br  tau(  18) = (   4.6791587   3.9587065   1.5217672  )
        19           Br  tau(  19) = (   3.4686705   6.0692795   4.9769442  )
        20           Br  tau(  20) = (   1.1739625   6.0692795   1.5606988  )

     number of k points=   102  Fermi-Dirac smearing, width (Ry)=  0.0070

     Number of k-points >= 100: set verbosity='high' to print them.

     Dense  grid:  1153641 G-vectors     FFT dimensions: ( 120, 192, 120)

     Smooth grid:   825419 G-vectors     FFT dimensions: ( 100, 180, 100)

     Estimated max dynamical RAM per process >     635.77 MB

     Estimated total dynamical RAM >      29.80 GB

     Initial potential from superposition of free atoms

     starting charge  243.93496, renormalised to  244.00000
     Starting wfcs are  164 randomized atomic wfcs
     Checking if some PAW data can be deallocated... 

     total cpu time spent up to now is       48.5 secs

     Self-consistent Calculation

     iteration #  1     ecut=   140.00 Ry     beta= 0.40
     Davidson diagonalization with overlap
     ethr =  1.00E-02,  avg # of iterations =  5.4

     Threshold (ethr) on eigenvalues was too large:
     Diagonalizing with lowered threshold

     Davidson diagonalization with overlap
     ethr =  1.17E-04,  avg # of iterations =  9.1

     total cpu time spent up to now is      354.1 secs

     total energy              =   -6740.53085978 Ry
     estimated scf accuracy    <       0.28250181 Ry

     iteration #  2     ecut=   140.00 Ry     beta= 0.40
     Davidson diagonalization with overlap
     ethr =  1.16E-04,  avg # of iterations =  2.0

     total cpu time spent up to now is      475.4 secs

     total energy              =   -6740.55699264 Ry
     estimated scf accuracy    <       0.03874670 Ry

     iteration #  3     ecut=   140.00 Ry     beta= 0.40
     Davidson diagonalization with overlap
     c_bands:  1 eigenvalues not converged
     ethr =  1.59E-05,  avg # of iterations =  7.6

     total cpu time spent up to now is      630.9 secs

     total energy              =   -6740.56206166 Ry
     estimated scf accuracy    <       0.00544246 Ry

     iteration #  4     ecut=   140.00 Ry     beta= 0.40
     Davidson diagonalization with overlap
     ethr =  2.23E-06,  avg # of iterations =  9.1

     total cpu time spent up to now is      794.2 secs

     total energy              =   -6740.56274621 Ry
     estimated scf accuracy    <       0.00077956 Ry

     iteration #  5     ecut=   140.00 Ry     beta= 0.40
     Davidson diagonalization with overlap
     ethr =  3.19E-07,  avg # of iterations =  2.0

     total cpu time spent up to now is      911.3 secs

     total energy              =   -6740.56288008 Ry
     estimated scf accuracy    <       0.00018372 Ry

     iteration #  6     ecut=   140.00 Ry     beta= 0.40
     Davidson diagonalization with overlap
     ethr =  7.53E-08,  avg # of iterations =  2.0

     total cpu time spent up to now is     1028.1 secs

     total energy              =   -6740.56289774 Ry
     estimated scf accuracy    <       0.00003563 Ry

     iteration #  7     ecut=   140.00 Ry     beta= 0.40
     Davidson diagonalization with overlap
     ethr =  1.46E-08,  avg # of iterations =  2.0

     total cpu time spent up to now is     1145.9 secs

     total energy              =   -6740.56289950 Ry
     estimated scf accuracy    <       0.00000098 Ry

     iteration #  8     ecut=   140.00 Ry     beta= 0.40
     Davidson diagonalization with overlap
     ethr =  4.00E-10,  avg # of iterations =  2.0

     total cpu time spent up to now is     1279.7 secs

     total energy              =   -6740.56289964 Ry
     estimated scf accuracy    <       0.00000012 Ry

     iteration #  9     ecut=   140.00 Ry     beta= 0.40
     Davidson diagonalization with overlap
     ethr =  4.91E-11,  avg # of iterations =  2.0

     total cpu time spent up to now is     1400.0 secs

     End of self-consistent calculation

     Number of k-points >= 100: set verbosity='high' to print the bands.

     the Fermi energy is     4.8728 ev

!    total energy              =   -6740.56289968 Ry

     total all-electron energy =   -114993.578857 Ry
     estimated scf accuracy    <          8.7E-09 Ry
     smearing contrib. (-TS)   =      -0.00000000 Ry
     internal energy E=F+TS    =   -6740.56289968 Ry

     The total energy is F=E-TS. E is the sum of the following terms:
     one-electron contribution =   -3515.78218631 Ry
     hartree contribution      =    1687.89653101 Ry
     xc contribution           =    -503.21653874 Ry
     ewald contribution        =   -1690.68325647 Ry
     one-center paw contrib.   =   -2718.77744916 Ry

     convergence has been achieved in   9 iterations

     Forces acting on atoms (cartesian axes, Ry/au):

     atom    1 type  1   force =     0.00000000   -0.00206486    0.00000000
     atom    2 type  1   force =     0.00000000    0.00042185    0.00000000
     atom    3 type  1   force =     0.00000000   -0.00039808    0.00000000
     atom    4 type  1   force =     0.00000000   -0.00206334    0.00000000
     atom    5 type  1   force =     0.00000000    0.00042753    0.00000000
     atom    6 type  1   force =     0.00000000   -0.00040083    0.00000000
     atom    7 type  2   force =     0.00000000    0.00081579    0.00000000
     atom    8 type  2   force =     0.00000000    0.00082095    0.00000000
     atom    9 type  3   force =     0.00087587    0.00150313    0.00388591
     atom   10 type  3   force =     0.00318527   -0.00240347    0.00126983
     atom   11 type  3   force =    -0.00318527   -0.00240347   -0.00126983
     atom   12 type  3   force =    -0.00087587    0.00150313   -0.00388591
     atom   13 type  3   force =    -0.00318226    0.00147486    0.00332856
     atom   14 type  3   force =     0.00318226    0.00147486   -0.00332856
     atom   15 type  3   force =     0.00088131    0.00148198    0.00392862
     atom   16 type  3   force =     0.00316426   -0.00235934    0.00125668
     atom   17 type  3   force =    -0.00316426   -0.00235934   -0.00125668
     atom   18 type  3   force =    -0.00088131    0.00148198   -0.00392862
     atom   19 type  3   force =    -0.00313020    0.00152333    0.00333436
     atom   20 type  3   force =     0.00313020    0.00152333   -0.00333436

     Total force =     0.015692     Total SCF correction =     0.000323


     Computing stress (Cartesian axis) and pressure

          total   stress  (Ry/bohr**3)                   (kbar)     P=       -4.38
  -0.00003289   0.00000000   0.00000130           -4.84        0.00        0.19
   0.00000000  -0.00003450   0.00000000            0.00       -5.08        0.00
   0.00000130   0.00000000  -0.00002191            0.19        0.00       -3.22


     Writing output data file ./pwscf.save/
 
     init_run     :     47.03s CPU     48.11s WALL (       1 calls)
     electrons    :   1332.80s CPU   1351.76s WALL (       1 calls)
     forces       :     13.62s CPU     13.72s WALL (       1 calls)
     stress       :    157.37s CPU    157.88s WALL (       1 calls)

     Called by init_run:
     wfcinit      :     43.63s CPU     44.64s WALL (       1 calls)
     potinit      :      1.19s CPU      1.21s WALL (       1 calls)
     hinit0       :      1.52s CPU      1.54s WALL (       1 calls)

     Called by electrons:
     c_bands      :   1126.90s CPU   1143.00s WALL (      10 calls)
     sum_band     :    201.55s CPU    203.85s WALL (      10 calls)
     v_of_rho     :      1.23s CPU      1.25s WALL (      10 calls)
     newd         :      2.17s CPU      2.48s WALL (      10 calls)
     PAW_pot      :      0.87s CPU      0.88s WALL (      10 calls)
     mix_rho      :      0.26s CPU      0.27s WALL (      10 calls)

     Called by c_bands:
     init_us_2    :     10.53s CPU     10.58s WALL (    1173 calls)
     cegterg      :   1053.67s CPU   1069.24s WALL (     510 calls)

     Called by *egterg:
     cdiaghg      :     80.96s CPU     81.76s WALL (    2750 calls)
     h_psi        :    745.31s CPU    755.61s WALL (    2852 calls)
     s_psi        :     49.37s CPU     49.52s WALL (    2852 calls)
     g_psi        :      2.30s CPU      2.31s WALL (    2291 calls)

     Called by h_psi:
     h_psi:calbec :     51.89s CPU     52.06s WALL (    2852 calls)
     vloc_psi     :    636.94s CPU    643.32s WALL (    2852 calls)
     add_vuspsi   :     50.57s CPU     50.72s WALL (    2852 calls)

     General routines
     calbec       :    123.95s CPU    124.31s WALL (    3617 calls)
     fft          :      1.24s CPU      1.26s WALL (     154 calls)
     ffts         :      0.09s CPU      0.09s WALL (      20 calls)
     fftw         :    677.00s CPU    683.53s WALL (  442758 calls)
     interpolate  :      0.13s CPU      0.14s WALL (      10 calls)
 
     Parallel routines
     fft_scatt_xy :     79.09s CPU     79.86s WALL (  442932 calls)
     fft_scatt_yz :    313.67s CPU    316.86s WALL (  442932 calls)
 
     PWSCF        :  25m59.56s CPU  26m37.29s WALL

 
   This run was terminated on:  18:33:26   2Aug2021            

=------------------------------------------------------------------------------=
   JOB DONE.
=------------------------------------------------------------------------------=
