
     Program PWSCF v.6.7MaX starts on  2Aug2021 at 17:22: 0 

     This program is part of the open-source Quantum ESPRESSO suite
     for quantum simulation of materials; please cite
         "P. Giannozzi et al., J. Phys.:Condens. Matter 21 395502 (2009);
         "P. Giannozzi et al., J. Phys.:Condens. Matter 29 465901 (2017);
          URL http://www.quantum-espresso.org", 
     in publications or presentations arising from this work. More details at
     http://www.quantum-espresso.org/quote

     Parallel version (MPI), running on    48 processors

     MPI processes distributed on     2 nodes
     K-points division:     npool     =       2
     R & G space division:  proc/nbgrp/npool/nimage =      24
     Waiting for input...
     Reading input from standard input
Warning: card &CELL ignored
Warning: card CELL_DYNAMICS             = 'BFGS', ignored
Warning: card PRESS                     = '0.0', ignored
Warning: card PRESS_CONV_THR            = '0.5', ignored
Warning: card / ignored
     Message from routine read_cards :
     DEPRECATED: no units specified in CELL_PARAMETERS card

     Current dimensions of program PWSCF are:
     Max number of different atomic species (ntypx) = 10
     Max number of k-points (npk) =  40000
     Max angular momentum in pseudopotentials (lmaxx) =  3
     Message from routine cell_base_init:
     DEPRECATED: use true lattice parameter, not A to a.u. conversion factor
 end of file reached, closing tag not found
     file Er.pbe-spdn-kjpaw_psl.1.0.0.UPF: wavefunction(s)  6S 5D renormalized
     file Br.pbe-dn-kjpaw_psl.1.0.0.UPF: wavefunction(s)  4S 4P 3D renormalized

     Subspace diagonalization in iterative solution of the eigenvalue problem:
     a serial algorithm will be used

     Found symmetry operation: I + ( -0.5000 -0.5000  0.0000)
     This is a supercell, fractional translations are disabled
     Message from routine setup:
     using ibrav=0 with symmetry is DISCOURAGED, use correct ibrav instead
 
     Parallelization info
     --------------------
     sticks:   dense  smooth     PW     G-vecs:    dense   smooth      PW
     Min         693     554    148                48067    34391    4791
     Max         694     555    149                48070    34393    4795
     Sum       16649   13297   3575              1153641   825419  115051
 


     bravais-lattice index     =            0
     lattice parameter (alat)  =       1.8897  a.u.
     unit-cell volume          =    3688.3023 (a.u.)^3
     number of atoms/cell      =           20
     number of atomic types    =            3
     number of electrons       =       244.00
     number of Kohn-Sham states=          146
     kinetic-energy cutoff     =     140.0000  Ry
     charge density cutoff     =     700.0000  Ry
     scf convergence threshold =      1.0E-08
     mixing beta               =       0.4000
     number of iterations used =            8  plain     mixing
     Exchange-correlation= SLA  PW   PBX  PBC
                           (   1   4   3   4   0   0   0)

     celldm(1)=   1.889726  celldm(2)=   0.000000  celldm(3)=   0.000000
     celldm(4)=   0.000000  celldm(5)=   0.000000  celldm(6)=   0.000000

     crystal axes: (cart. coord. in units of alat)
               a(1) = (   6.967356   0.000000   0.000000 )  
               a(2) = (   0.000000  11.998880   0.000000 )  
               a(3) = (  -2.324723   0.000000   6.537643 )  

     reciprocal axes: (cart. coord. in units 2 pi/alat)
               b(1) = (  0.143526  0.000000  0.051037 )  
               b(2) = (  0.000000  0.083341  0.000000 )  
               b(3) = (  0.000000  0.000000  0.152960 )  


     PseudoPot. # 1 for Li read from file:
     /central/groups/SeeGroup/qe_pseudopotentials/Li.pbe-s-kjpaw_psl.1.0.0.UPF
     MD5 check sum: cc502796ee09d8b62ac346ee26e59beb
     Pseudo is Projector augmented-wave, Zval =  3.0
     Generated using &quot;atomic&quot; code by A. Dal Corso  v.6.3
     Shape of augmentation charge: PSQ
     Using radial grid of 1017 points,  4 beta functions with: 
                l(1) =   0
                l(2) =   0
                l(3) =   1
                l(4) =   1
     Q(r) pseudized with 0 coefficients 


     PseudoPot. # 2 for Er read from file:
     /central/groups/SeeGroup/qe_pseudopotentials/Er.pbe-spdn-kjpaw_psl.1.0.0.UPF
     MD5 check sum: a923254af2aef992cff3e18bc73f2922
     Pseudo is Projector augmented-wave + core cor, Zval = 11.0
     Generated using &quot;atomic&quot; code by A. Dal Corso  v.6.2.2
     Shape of augmentation charge: PSQ
     Using radial grid of 1267 points,  6 beta functions with: 
                l(1) =   0
                l(2) =   0
                l(3) =   1
                l(4) =   1
                l(5) =   2
                l(6) =   2
     Q(r) pseudized with 0 coefficients 


     PseudoPot. # 3 for Br read from file:
     /central/groups/SeeGroup/qe_pseudopotentials/Br.pbe-dn-kjpaw_psl.1.0.0.UPF
     MD5 check sum: 4ca4ebabfd6065c7bb707b2ebe99e9b3
     Pseudo is Projector augmented-wave + core cor, Zval = 17.0
     Generated using &quot;atomic&quot; code by A. Dal Corso  v.6.3
     Shape of augmentation charge: PSQ
     Using radial grid of 1213 points,  6 beta functions with: 
                l(1) =   0
                l(2) =   0
                l(3) =   1
                l(4) =   1
                l(5) =   2
                l(6) =   2
     Q(r) pseudized with 0 coefficients 


     atomic species   valence    mass     pseudopotential
        Li             3.00     6.94100     Li( 1.00)
        Er            11.00   167.25900     Er( 1.00)
        Br            17.00    79.90400     Br( 1.00)

      2 Sym. Ops. (no inversion) found



   Cartesian axes

     site n.     atom                  positions (alat units)
         1           Li  tau(   1) = (   3.4836780   9.9564306   0.0000000  )
         2           Li  tau(   2) = (   3.4836780   2.0173957   0.0000000  )
         3           Li  tau(   3) = (   2.3213165   7.8846440   3.2688215  )
         4           Li  tau(   4) = (   0.0000000   3.9569906   0.0000000  )
         5           Li  tau(   5) = (   0.0000000   8.0168357   0.0000000  )
         6           Li  tau(   6) = (  -1.1623615   1.8852040   3.2688215  )
         7           Er  tau(   7) = (   3.4836780   5.9699947   0.0000000  )
         8           Er  tau(   8) = (   0.0000000  11.9694347   0.0000000  )
         9           Br  tau(   9) = (   3.4471523   9.9581465   5.0158758  )
        10           Br  tau(  10) = (   3.5847273   1.9854607   4.9258002  )
        11           Br  tau(  11) = (   1.0579057   1.9854607   1.6118428  )
        12           Br  tau(  12) = (   1.1954807   9.9581465   1.5217672  )
        13           Br  tau(  13) = (  -0.0150075   0.0698395   4.9769442  )
        14           Br  tau(  14) = (   4.6576405   0.0698395   1.5606988  )
        15           Br  tau(  15) = (  -0.0365257   3.9587065   5.0158758  )
        16           Br  tau(  16) = (   0.1010493   7.9849007   4.9258002  )
        17           Br  tau(  17) = (   4.5415837   7.9849007   1.6118428  )
        18           Br  tau(  18) = (   4.6791587   3.9587065   1.5217672  )
        19           Br  tau(  19) = (   3.4686705   6.0692795   4.9769442  )
        20           Br  tau(  20) = (   1.1739625   6.0692795   1.5606988  )

     number of k points=    20  Fermi-Dirac smearing, width (Ry)=  0.0070
                       cart. coord. in units 2pi/alat
        k(    1) = (   0.0000000   0.0000000   0.0000000), wk =   0.0625000
        k(    2) = (   0.0000000   0.0000000   0.0382401), wk =   0.1250000
        k(    3) = (   0.0000000   0.0000000  -0.0764802), wk =   0.0625000
        k(    4) = (   0.0000000  -0.0416706   0.0000000), wk =   0.0625000
        k(    5) = (   0.0000000  -0.0416706   0.0382401), wk =   0.1250000
        k(    6) = (   0.0000000  -0.0416706  -0.0764802), wk =   0.0625000
        k(    7) = (   0.0358816   0.0000000   0.0127592), wk =   0.1250000
        k(    8) = (   0.0358816   0.0000000   0.0509992), wk =   0.1250000
        k(    9) = (   0.0358816   0.0000000  -0.0637210), wk =   0.1250000
        k(   10) = (   0.0358816   0.0000000  -0.0254809), wk =   0.1250000
        k(   11) = (   0.0358816  -0.0416706   0.0127592), wk =   0.1250000
        k(   12) = (   0.0358816  -0.0416706   0.0509992), wk =   0.1250000
        k(   13) = (   0.0358816  -0.0416706  -0.0637210), wk =   0.1250000
        k(   14) = (   0.0358816  -0.0416706  -0.0254809), wk =   0.1250000
        k(   15) = (  -0.0717632   0.0000000  -0.0255183), wk =   0.0625000
        k(   16) = (  -0.0717632   0.0000000   0.0127218), wk =   0.1250000
        k(   17) = (  -0.0717632   0.0000000  -0.1019985), wk =   0.0625000
        k(   18) = (  -0.0717632  -0.0416706  -0.0255183), wk =   0.0625000
        k(   19) = (  -0.0717632  -0.0416706   0.0127218), wk =   0.1250000
        k(   20) = (  -0.0717632  -0.0416706  -0.1019985), wk =   0.0625000

     Dense  grid:  1153641 G-vectors     FFT dimensions: ( 120, 192, 120)

     Smooth grid:   825419 G-vectors     FFT dimensions: ( 100, 180, 100)

     Estimated max dynamical RAM per process >     243.19 MB

     Estimated total dynamical RAM >      11.40 GB

     Initial potential from superposition of free atoms

     starting charge  243.93496, renormalised to  244.00000
     Starting wfcs are  164 randomized atomic wfcs
     Checking if some PAW data can be deallocated... 

     total cpu time spent up to now is       12.6 secs

     Self-consistent Calculation

     iteration #  1     ecut=   140.00 Ry     beta= 0.40
     Davidson diagonalization with overlap
     ethr =  1.00E-02,  avg # of iterations =  5.5

     Threshold (ethr) on eigenvalues was too large:
     Diagonalizing with lowered threshold

     Davidson diagonalization with overlap
     ethr =  1.17E-04,  avg # of iterations =  8.4

     total cpu time spent up to now is       71.7 secs

     total energy              =   -6740.53083163 Ry
     estimated scf accuracy    <       0.28254228 Ry

     iteration #  2     ecut=   140.00 Ry     beta= 0.40
     Davidson diagonalization with overlap
     ethr =  1.16E-04,  avg # of iterations =  2.0

     total cpu time spent up to now is       96.1 secs

     total energy              =   -6740.55697648 Ry
     estimated scf accuracy    <       0.03874037 Ry

     iteration #  3     ecut=   140.00 Ry     beta= 0.40
     Davidson diagonalization with overlap
     ethr =  1.59E-05,  avg # of iterations =  7.4

     total cpu time spent up to now is      126.8 secs

     total energy              =   -6740.56204525 Ry
     estimated scf accuracy    <       0.00544246 Ry

     iteration #  4     ecut=   140.00 Ry     beta= 0.40
     Davidson diagonalization with overlap
     ethr =  2.23E-06,  avg # of iterations =  7.7

     total cpu time spent up to now is      157.6 secs

     total energy              =   -6740.56273018 Ry
     estimated scf accuracy    <       0.00077556 Ry

     iteration #  5     ecut=   140.00 Ry     beta= 0.40
     Davidson diagonalization with overlap
     ethr =  3.18E-07,  avg # of iterations =  2.0

     total cpu time spent up to now is      181.1 secs

     total energy              =   -6740.56286292 Ry
     estimated scf accuracy    <       0.00018318 Ry

     iteration #  6     ecut=   140.00 Ry     beta= 0.40
     Davidson diagonalization with overlap
     ethr =  7.51E-08,  avg # of iterations =  2.0

     total cpu time spent up to now is      204.5 secs

     total energy              =   -6740.56288051 Ry
     estimated scf accuracy    <       0.00003606 Ry

     iteration #  7     ecut=   140.00 Ry     beta= 0.40
     Davidson diagonalization with overlap
     ethr =  1.48E-08,  avg # of iterations =  2.0

     total cpu time spent up to now is      228.1 secs

     total energy              =   -6740.56288229 Ry
     estimated scf accuracy    <       0.00000092 Ry

     iteration #  8     ecut=   140.00 Ry     beta= 0.40
     Davidson diagonalization with overlap
     ethr =  3.76E-10,  avg # of iterations =  2.1

     total cpu time spent up to now is      255.5 secs

     total energy              =   -6740.56288242 Ry
     estimated scf accuracy    <       0.00000012 Ry

     iteration #  9     ecut=   140.00 Ry     beta= 0.40
     Davidson diagonalization with overlap
     ethr =  4.97E-11,  avg # of iterations =  2.0

     total cpu time spent up to now is      279.6 secs

     End of self-consistent calculation

          k = 0.0000 0.0000 0.0000 (103225 PWs)   bands (ev):

   -56.2758 -56.2757 -56.2757 -56.2756 -56.2728 -56.2728 -56.2727 -56.2727
   -56.2580 -56.2580 -56.2579 -56.2579 -56.2529 -56.2528 -56.2528 -56.2528
   -56.2505 -56.2505 -56.2504 -56.2504 -56.2369 -56.2369 -56.2368 -56.2368
   -56.2248 -56.2248 -56.2247 -56.2247 -56.2211 -56.2211 -56.2211 -56.2211
   -56.2100 -56.2100 -56.2100 -56.2099 -56.2071 -56.2071 -56.2070 -56.2070
   -56.1919 -56.1919 -56.1918 -56.1918 -56.1909 -56.1909 -56.1909 -56.1909
   -56.1899 -56.1899 -56.1899 -56.1898 -56.1838 -56.1838 -56.1838 -56.1838
   -56.1808 -56.1808 -56.1808 -56.1808 -46.9321 -46.9320 -42.0680 -42.0680
   -41.7993 -41.7993 -41.7709 -41.7708 -20.7600 -20.7599 -20.7546 -20.7546
   -20.7545 -20.7543 -10.7217 -10.5407 -10.3947 -10.2882 -10.2784 -10.2691
   -10.2365 -10.2318 -10.2243 -10.1599 -10.1545 -10.1287  -0.1684  -0.1594
     0.2179   0.2442   0.2633   0.4075   0.4549   0.6221   0.6722   0.7410
     0.8621   0.8623   0.8731   0.9982   1.1250   1.2411   1.2642   1.2678
     1.2728   1.4827   1.5252   1.6951   1.7402   1.9380   1.9804   2.0168
     2.0553   2.0730   2.1871   2.2405   2.3322   2.4622   2.5281   2.5282
     2.5730   2.5792   7.0473   7.3026   7.4452   7.4650   7.4669   7.5186
     7.5471   8.7245   8.7420   8.8084   9.1064   9.1638   9.3651   9.3989
     9.4757   9.7235   9.9170  10.3103  10.3251  10.3769  10.6700  10.8568
    10.9489  11.1004

          k = 0.0000 0.0000 0.0382 (103185 PWs)   bands (ev):

   -56.2758 -56.2757 -56.2757 -56.2757 -56.2728 -56.2728 -56.2727 -56.2727
   -56.2580 -56.2580 -56.2579 -56.2579 -56.2529 -56.2529 -56.2528 -56.2528
   -56.2505 -56.2505 -56.2504 -56.2504 -56.2369 -56.2369 -56.2368 -56.2368
   -56.2248 -56.2248 -56.2247 -56.2247 -56.2211 -56.2211 -56.2211 -56.2211
   -56.2100 -56.2100 -56.2100 -56.2099 -56.2071 -56.2071 -56.2070 -56.2070
   -56.1919 -56.1919 -56.1918 -56.1918 -56.1909 -56.1909 -56.1909 -56.1909
   -56.1899 -56.1899 -56.1899 -56.1898 -56.1838 -56.1838 -56.1838 -56.1838
   -56.1808 -56.1808 -56.1808 -56.1808 -46.9321 -46.9320 -42.0680 -42.0680
   -41.7993 -41.7993 -41.7709 -41.7708 -20.7601 -20.7600 -20.7547 -20.7546
   -20.7546 -20.7543 -10.6757 -10.5059 -10.3755 -10.3105 -10.2925 -10.2870
   -10.2560 -10.2406 -10.2224 -10.1772 -10.1657 -10.1328  -0.0739   0.0184
     0.2529   0.2910   0.3280   0.3696   0.4410   0.5134   0.6813   0.8176
     0.8237   0.9411   0.9503   1.0451   1.0733   1.1990   1.2777   1.3100
     1.4261   1.4434   1.4494   1.6095   1.7850   1.9428   1.9536   2.0225
     2.0518   2.0973   2.1306   2.1645   2.2481   2.2505   2.3217   2.4585
     2.4939   2.5028   7.1690   7.2665   7.3117   7.3847   7.4916   7.5468
     8.0625   8.8001   8.8540   8.8820   9.1495   9.3124   9.3394   9.5162
     9.7847   9.8663  10.1251  10.2129  10.3906  10.6659  10.7022  10.8512
    10.9565  10.9645

          k = 0.0000 0.0000-0.0765 (103168 PWs)   bands (ev):

   -56.2758 -56.2757 -56.2757 -56.2757 -56.2728 -56.2728 -56.2727 -56.2727
   -56.2580 -56.2580 -56.2579 -56.2579 -56.2529 -56.2529 -56.2528 -56.2528
   -56.2505 -56.2505 -56.2504 -56.2504 -56.2369 -56.2369 -56.2368 -56.2368
   -56.2248 -56.2248 -56.2247 -56.2247 -56.2211 -56.2211 -56.2211 -56.2211
   -56.2100 -56.2100 -56.2100 -56.2099 -56.2071 -56.2071 -56.2070 -56.2070
   -56.1919 -56.1919 -56.1918 -56.1918 -56.1909 -56.1909 -56.1909 -56.1909
   -56.1899 -56.1899 -56.1899 -56.1898 -56.1838 -56.1838 -56.1838 -56.1838
   -56.1808 -56.1808 -56.1808 -56.1808 -46.9321 -46.9320 -42.0680 -42.0680
   -41.7993 -41.7993 -41.7709 -41.7708 -20.7601 -20.7600 -20.7547 -20.7546
   -20.7546 -20.7543 -10.6104 -10.4578 -10.3798 -10.3444 -10.3194 -10.2847
   -10.2725 -10.2577 -10.2406 -10.1827 -10.1630 -10.1419   0.0250   0.1835
     0.1909   0.2488   0.3938   0.4981   0.5828   0.6734   0.6854   0.7348
     0.7824   0.9491   0.9904   1.0446   1.0949   1.2085   1.2706   1.3602
     1.3882   1.4543   1.4662   1.5322   1.6690   1.7954   1.8869   1.8997
     1.9536   2.0697   2.1218   2.1331   2.1439   2.2876   2.2985   2.3347
     2.4568   2.4597   7.1906   7.2149   7.2501   7.3270   7.4872   7.5779
     8.6393   8.7926   8.9073   9.0791   9.1932   9.4469   9.8898   9.9482
     9.9574  10.0375  10.0404  10.1870  10.2476  10.3058  10.7758  10.8079
    10.9740  10.9877

          k = 0.0000-0.0417 0.0000 (103114 PWs)   bands (ev):

   -56.2758 -56.2757 -56.2757 -56.2756 -56.2728 -56.2728 -56.2727 -56.2727
   -56.2580 -56.2580 -56.2579 -56.2579 -56.2529 -56.2528 -56.2528 -56.2528
   -56.2505 -56.2505 -56.2504 -56.2504 -56.2369 -56.2369 -56.2368 -56.2368
   -56.2248 -56.2248 -56.2247 -56.2247 -56.2211 -56.2211 -56.2211 -56.2211
   -56.2100 -56.2100 -56.2100 -56.2099 -56.2071 -56.2071 -56.2070 -56.2070
   -56.1919 -56.1919 -56.1918 -56.1918 -56.1909 -56.1909 -56.1909 -56.1909
   -56.1899 -56.1899 -56.1899 -56.1898 -56.1838 -56.1838 -56.1838 -56.1838
   -56.1808 -56.1808 -56.1808 -56.1808 -46.9321 -46.9320 -42.0680 -42.0680
   -41.7993 -41.7993 -41.7709 -41.7708 -20.7600 -20.7599 -20.7546 -20.7545
   -20.7545 -20.7544 -10.6535 -10.6535 -10.3174 -10.3173 -10.2894 -10.2893
   -10.1939 -10.1939 -10.1819 -10.1819 -10.1782 -10.1782  -0.1233  -0.1233
     0.1039   0.1039   0.3376   0.3376   0.5099   0.5099   0.7129   0.7129
     0.8485   0.8485   1.0660   1.0660   1.1407   1.1407   1.3233   1.3233
     1.4261   1.4262   1.7543   1.7543   1.8672   1.8673   1.9394   1.9394
     1.9754   1.9754   2.2787   2.2787   2.3261   2.3261   2.4124   2.4124
     2.5465   2.5465   7.2708   7.2708   7.4556   7.4557   7.4804   7.4805
     8.1046   8.1047   8.8892   8.8892   9.0969   9.0970   9.3646   9.3646
     9.5735   9.5735  10.1335  10.1336  10.2458  10.2458  10.8134  10.8134
    11.1255  11.1255

          k = 0.0000-0.0417 0.0382 (103168 PWs)   bands (ev):

   -56.2758 -56.2757 -56.2757 -56.2757 -56.2728 -56.2728 -56.2727 -56.2727
   -56.2580 -56.2580 -56.2579 -56.2579 -56.2529 -56.2529 -56.2528 -56.2528
   -56.2505 -56.2505 -56.2504 -56.2504 -56.2369 -56.2369 -56.2368 -56.2368
   -56.2248 -56.2248 -56.2247 -56.2247 -56.2211 -56.2211 -56.2211 -56.2211
   -56.2100 -56.2100 -56.2100 -56.2099 -56.2071 -56.2071 -56.2070 -56.2070
   -56.1919 -56.1919 -56.1918 -56.1918 -56.1909 -56.1909 -56.1909 -56.1909
   -56.1899 -56.1899 -56.1899 -56.1898 -56.1838 -56.1838 -56.1838 -56.1838
   -56.1808 -56.1808 -56.1808 -56.1808 -46.9321 -46.9320 -42.0680 -42.0680
   -41.7993 -41.7993 -41.7709 -41.7708 -20.7601 -20.7600 -20.7547 -20.7546
   -20.7545 -20.7544 -10.6114 -10.6114 -10.3251 -10.3251 -10.2971 -10.2971
   -10.2107 -10.2107 -10.2065 -10.2065 -10.1700 -10.1700  -0.0308  -0.0307
     0.2270   0.2270   0.3648   0.3648   0.4743   0.4743   0.6043   0.6043
     0.9318   0.9318   1.0438   1.0438   1.2373   1.2373   1.3498   1.3498
     1.5500   1.5500   1.6622   1.6622   1.7790   1.7790   1.8794   1.8794
     1.9704   1.9704   2.1522   2.1522   2.2620   2.2620   2.3655   2.3655
     2.4375   2.4375   7.3290   7.3290   7.3772   7.3772   7.4407   7.4407
     8.4389   8.4389   8.9319   8.9319   9.2530   9.2530   9.6344   9.6344
     9.8917   9.8917   9.9496   9.9496  10.4884  10.4885  10.5670  10.5670
    10.9329  10.9329

          k = 0.0000-0.0417-0.0765 (103140 PWs)   bands (ev):

   -56.2758 -56.2757 -56.2757 -56.2757 -56.2728 -56.2728 -56.2727 -56.2727
   -56.2580 -56.2580 -56.2579 -56.2579 -56.2529 -56.2529 -56.2528 -56.2528
   -56.2505 -56.2505 -56.2504 -56.2504 -56.2369 -56.2369 -56.2368 -56.2368
   -56.2248 -56.2248 -56.2247 -56.2247 -56.2211 -56.2211 -56.2211 -56.2211
   -56.2100 -56.2100 -56.2100 -56.2099 -56.2071 -56.2071 -56.2070 -56.2070
   -56.1919 -56.1919 -56.1918 -56.1918 -56.1909 -56.1909 -56.1909 -56.1909
   -56.1899 -56.1899 -56.1899 -56.1898 -56.1838 -56.1838 -56.1838 -56.1838
   -56.1808 -56.1808 -56.1808 -56.1808 -46.9321 -46.9320 -42.0680 -42.0680
   -41.7993 -41.7993 -41.7709 -41.7708 -20.7601 -20.7600 -20.7547 -20.7546
   -20.7545 -20.7544 -10.5504 -10.5504 -10.3687 -10.3687 -10.2997 -10.2997
   -10.2324 -10.2324 -10.1931 -10.1931 -10.1831 -10.1830   0.0538   0.0538
     0.2426   0.2426   0.3734   0.3735   0.6018   0.6018   0.7467   0.7467
     0.9809   0.9809   0.9842   0.9843   1.2421   1.2421   1.2463   1.2463
     1.4912   1.4912   1.5595   1.5595   1.8055   1.8055   1.8991   1.8991
     1.9837   1.9837   1.9972   1.9972   2.1976   2.1976   2.2922   2.2922
     2.3950   2.3950   7.2829   7.2830   7.3439   7.3440   7.4705   7.4706
     8.5946   8.5946   9.2053   9.2054   9.4972   9.4972   9.7991   9.7991
    10.0161  10.0161  10.0195  10.0196  10.5278  10.5279  10.5860  10.5860
    11.1795  11.1798

          k = 0.0359 0.0000 0.0128 (103154 PWs)   bands (ev):

   -56.2758 -56.2757 -56.2757 -56.2757 -56.2728 -56.2728 -56.2727 -56.2727
   -56.2580 -56.2580 -56.2579 -56.2579 -56.2529 -56.2529 -56.2528 -56.2528
   -56.2505 -56.2505 -56.2504 -56.2504 -56.2369 -56.2369 -56.2368 -56.2368
   -56.2248 -56.2248 -56.2247 -56.2247 -56.2211 -56.2211 -56.2211 -56.2211
   -56.2100 -56.2100 -56.2100 -56.2099 -56.2071 -56.2071 -56.2070 -56.2070
   -56.1919 -56.1919 -56.1918 -56.1918 -56.1909 -56.1909 -56.1909 -56.1909
   -56.1899 -56.1899 -56.1899 -56.1898 -56.1838 -56.1838 -56.1838 -56.1838
   -56.1808 -56.1808 -56.1808 -56.1808 -46.9321 -46.9320 -42.0680 -42.0680
   -41.7993 -41.7993 -41.7709 -41.7708 -20.7600 -20.7599 -20.7547 -20.7546
   -20.7546 -20.7544 -10.6659 -10.5047 -10.3759 -10.3327 -10.2976 -10.2756
   -10.2450 -10.2425 -10.2189 -10.1893 -10.1535 -10.1404  -0.0910   0.0485
     0.2766   0.2777   0.3455   0.3950   0.4503   0.5315   0.7033   0.7568
     0.8334   0.8417   0.8934   0.9686   1.0405   1.1339   1.3527   1.3627
     1.4025   1.5084   1.6306   1.6864   1.8124   1.8442   1.9288   2.0104
     2.0109   2.0944   2.1331   2.1504   2.2268   2.2401   2.3252   2.4734
     2.4848   2.5246   7.1627   7.3371   7.3865   7.3930   7.4226   7.4488
     8.0601   8.8366   8.9053   8.9705   9.0320   9.0392   9.4184   9.6974
     9.7071   9.9481  10.0903  10.2120  10.3964  10.5393  10.6341  10.8056
    10.9856  11.0959

          k = 0.0359 0.0000 0.0510 (103154 PWs)   bands (ev):

   -56.2758 -56.2757 -56.2757 -56.2757 -56.2728 -56.2728 -56.2727 -56.2727
   -56.2580 -56.2580 -56.2579 -56.2579 -56.2529 -56.2529 -56.2528 -56.2528
   -56.2505 -56.2505 -56.2504 -56.2504 -56.2369 -56.2369 -56.2368 -56.2368
   -56.2248 -56.2248 -56.2247 -56.2247 -56.2211 -56.2211 -56.2211 -56.2211
   -56.2100 -56.2100 -56.2100 -56.2099 -56.2071 -56.2071 -56.2070 -56.2070
   -56.1919 -56.1919 -56.1918 -56.1918 -56.1909 -56.1909 -56.1909 -56.1909
   -56.1899 -56.1899 -56.1899 -56.1898 -56.1838 -56.1838 -56.1838 -56.1838
   -56.1808 -56.1808 -56.1808 -56.1808 -46.9321 -46.9320 -42.0680 -42.0680
   -41.7993 -41.7993 -41.7709 -41.7708 -20.7601 -20.7600 -20.7547 -20.7546
   -20.7546 -20.7544 -10.6023 -10.4632 -10.3644 -10.3404 -10.3351 -10.2800
   -10.2674 -10.2529 -10.2511 -10.1962 -10.1605 -10.1418   0.0744   0.1287
     0.2324   0.2712   0.4712   0.4875   0.5451   0.5785   0.6391   0.7418
     0.7528   0.8928   1.0482   1.0531   1.0569   1.1629   1.2743   1.2861
     1.3420   1.4331   1.5801   1.6899   1.7576   1.8681   1.9340   1.9584
     1.9953   2.0007   2.0742   2.1402   2.2179   2.2245   2.2316   2.2593
     2.3703   2.4909   7.1910   7.2424   7.3562   7.3673   7.4684   7.4792
     8.6447   8.6848   8.9579   9.0075   9.0232   9.5107   9.5676   9.7948
     9.8772  10.0095  10.1212  10.2477  10.2539  10.5098  10.5602  10.7943
    11.0900  11.2999

          k = 0.0359 0.0000-0.0637 (103156 PWs)   bands (ev):

   -56.2758 -56.2757 -56.2757 -56.2757 -56.2728 -56.2728 -56.2727 -56.2727
   -56.2580 -56.2580 -56.2579 -56.2579 -56.2529 -56.2529 -56.2528 -56.2528
   -56.2505 -56.2505 -56.2504 -56.2504 -56.2369 -56.2369 -56.2368 -56.2368
   -56.2248 -56.2248 -56.2247 -56.2247 -56.2211 -56.2211 -56.2211 -56.2211
   -56.2100 -56.2100 -56.2100 -56.2099 -56.2071 -56.2071 -56.2070 -56.2070
   -56.1919 -56.1919 -56.1918 -56.1918 -56.1909 -56.1909 -56.1909 -56.1909
   -56.1899 -56.1899 -56.1899 -56.1898 -56.1838 -56.1838 -56.1838 -56.1838
   -56.1808 -56.1808 -56.1808 -56.1808 -46.9321 -46.9320 -42.0680 -42.0680
   -41.7993 -41.7993 -41.7709 -41.7708 -20.7601 -20.7600 -20.7548 -20.7547
   -20.7546 -20.7544 -10.5735 -10.4325 -10.3650 -10.3598 -10.3121 -10.2987
   -10.2937 -10.2611 -10.2510 -10.1751 -10.1699 -10.1657  -0.0094  -0.0070
     0.2106   0.2212   0.3970   0.4133   0.4797   0.5517   0.5763   0.6657
     0.7170   0.9209   1.0847   1.1140   1.1884   1.2596   1.3868   1.4557
     1.4564   1.6368   1.7122   1.7141   1.7649   1.8638   1.8863   1.8913
     1.9587   1.9903   2.0639   2.1413   2.1932   2.2613   2.2829   2.2984
     2.4246   2.4734   7.1138   7.1972   7.2688   7.2880   7.3747   7.4558
     8.6613   8.7247   9.0945   9.1341   9.1698   9.2393   9.5175   9.5406
     9.6754   9.8372   9.8861  10.0006  10.0436  10.1094  10.3259  10.4583
    11.0426  11.2085

          k = 0.0359 0.0000-0.0255 (103150 PWs)   bands (ev):

   -56.2758 -56.2757 -56.2757 -56.2757 -56.2728 -56.2728 -56.2727 -56.2727
   -56.2580 -56.2580 -56.2579 -56.2579 -56.2529 -56.2528 -56.2528 -56.2528
   -56.2505 -56.2505 -56.2504 -56.2504 -56.2369 -56.2369 -56.2368 -56.2368
   -56.2248 -56.2248 -56.2247 -56.2247 -56.2211 -56.2211 -56.2211 -56.2211
   -56.2100 -56.2100 -56.2100 -56.2099 -56.2071 -56.2071 -56.2070 -56.2070
   -56.1919 -56.1919 -56.1918 -56.1918 -56.1909 -56.1909 -56.1909 -56.1909
   -56.1899 -56.1899 -56.1899 -56.1898 -56.1838 -56.1838 -56.1838 -56.1838
   -56.1808 -56.1808 -56.1808 -56.1808 -46.9321 -46.9320 -42.0680 -42.0680
   -41.7993 -41.7993 -41.7709 -41.7708 -20.7601 -20.7600 -20.7547 -20.7546
   -20.7546 -20.7544 -10.6482 -10.4863 -10.3642 -10.3165 -10.3094 -10.2791
   -10.2676 -10.2454 -10.2280 -10.1811 -10.1630 -10.1563  -0.1334  -0.0266
     0.1926   0.2547   0.2956   0.3495   0.4006   0.4206   0.5386   0.6261
     0.7241   0.8985   1.0535   1.0981   1.2392   1.3161   1.3690   1.4436
     1.5814   1.6836   1.7005   1.7670   1.7918   1.8050   1.8514   1.9399
     2.0083   2.0616   2.1209   2.1447   2.3153   2.3389   2.3994   2.4139
     2.4656   2.5378   7.1076   7.2344   7.2572   7.3407   7.3689   7.4202
     8.0914   8.7179   8.9214   9.0132   9.1801   9.2718   9.4224   9.5257
     9.5602   9.7525   9.7830   9.9349   9.9645  10.2074  10.2306  10.3113
    10.8485  11.1901

          k = 0.0359-0.0417 0.0128 (103204 PWs)   bands (ev):

   -56.2758 -56.2757 -56.2757 -56.2757 -56.2728 -56.2728 -56.2727 -56.2727
   -56.2580 -56.2580 -56.2579 -56.2579 -56.2529 -56.2529 -56.2528 -56.2528
   -56.2505 -56.2505 -56.2504 -56.2504 -56.2369 -56.2369 -56.2368 -56.2368
   -56.2248 -56.2248 -56.2247 -56.2247 -56.2211 -56.2211 -56.2211 -56.2211
   -56.2100 -56.2100 -56.2100 -56.2099 -56.2071 -56.2071 -56.2070 -56.2070
   -56.1919 -56.1919 -56.1918 -56.1918 -56.1909 -56.1909 -56.1909 -56.1909
   -56.1899 -56.1899 -56.1899 -56.1898 -56.1838 -56.1838 -56.1838 -56.1838
   -56.1808 -56.1808 -56.1808 -56.1808 -46.9321 -46.9320 -42.0680 -42.0680
   -41.7993 -41.7993 -41.7709 -41.7708 -20.7600 -20.7599 -20.7547 -20.7546
   -20.7545 -20.7544 -10.6052 -10.6052 -10.3190 -10.3189 -10.3050 -10.3050
   -10.2327 -10.2327 -10.1986 -10.1986 -10.1606 -10.1606  -0.0279  -0.0279
     0.2419   0.2419   0.3210   0.3210   0.5293   0.5294   0.5941   0.5941
     0.8843   0.8843   1.0602   1.0602   1.2753   1.2753   1.3772   1.3772
     1.4900   1.4900   1.6721   1.6721   1.7172   1.7172   1.8667   1.8667
     2.0340   2.0340   2.1261   2.1261   2.3061   2.3061   2.3462   2.3462
     2.4486   2.4486   7.3347   7.3348   7.3957   7.3958   7.4103   7.4104
     8.4121   8.4122   9.0225   9.0225   9.1320   9.1320   9.6071   9.6071
     9.8534   9.8535  10.1427  10.1427  10.3820  10.3820  10.5265  10.5265
    11.0641  11.0641

          k = 0.0359-0.0417 0.0510 (103176 PWs)   bands (ev):

   -56.2758 -56.2757 -56.2757 -56.2757 -56.2728 -56.2728 -56.2727 -56.2727
   -56.2580 -56.2580 -56.2579 -56.2579 -56.2529 -56.2529 -56.2528 -56.2528
   -56.2505 -56.2505 -56.2504 -56.2504 -56.2369 -56.2369 -56.2368 -56.2368
   -56.2248 -56.2248 -56.2247 -56.2247 -56.2211 -56.2211 -56.2211 -56.2211
   -56.2100 -56.2100 -56.2100 -56.2099 -56.2071 -56.2071 -56.2070 -56.2070
   -56.1919 -56.1919 -56.1918 -56.1918 -56.1909 -56.1909 -56.1909 -56.1909
   -56.1899 -56.1899 -56.1899 -56.1898 -56.1838 -56.1838 -56.1838 -56.1838
   -56.1808 -56.1808 -56.1808 -56.1808 -46.9321 -46.9320 -42.0680 -42.0680
   -41.7993 -41.7993 -41.7709 -41.7708 -20.7601 -20.7600 -20.7547 -20.7547
   -20.7545 -20.7544 -10.5492 -10.5491 -10.3421 -10.3421 -10.3080 -10.3080
   -10.2503 -10.2503 -10.2239 -10.2239 -10.1541 -10.1541   0.0311   0.0311
     0.2887   0.2888   0.4272   0.4272   0.5906   0.5906   0.6808   0.6808
     0.8427   0.8427   1.0095   1.0095   1.1861   1.1861   1.4730   1.4730
     1.5428   1.5428   1.6003   1.6003   1.6670   1.6670   1.8163   1.8163
     1.9583   1.9583   2.1153   2.1153   2.2232   2.2232   2.2878   2.2878
     2.3549   2.3550   7.2891   7.2891   7.3592   7.3593   7.4664   7.4664
     8.5591   8.5591   9.1076   9.1077   9.4925   9.4925   9.8051   9.8051
     9.8701   9.8701  10.1492  10.1492  10.2602  10.2602  10.6050  10.6050
    11.1311  11.1311

          k = 0.0359-0.0417-0.0637 (103196 PWs)   bands (ev):

   -56.2758 -56.2757 -56.2757 -56.2757 -56.2728 -56.2728 -56.2727 -56.2727
   -56.2580 -56.2580 -56.2579 -56.2579 -56.2529 -56.2529 -56.2528 -56.2528
   -56.2505 -56.2505 -56.2504 -56.2504 -56.2369 -56.2369 -56.2368 -56.2368
   -56.2248 -56.2248 -56.2247 -56.2247 -56.2211 -56.2211 -56.2211 -56.2211
   -56.2100 -56.2100 -56.2100 -56.2099 -56.2071 -56.2071 -56.2070 -56.2070
   -56.1919 -56.1919 -56.1918 -56.1918 -56.1909 -56.1909 -56.1909 -56.1909
   -56.1899 -56.1899 -56.1899 -56.1898 -56.1838 -56.1838 -56.1838 -56.1838
   -56.1808 -56.1808 -56.1808 -56.1808 -46.9321 -46.9320 -42.0680 -42.0680
   -41.7993 -41.7993 -41.7709 -41.7708 -20.7601 -20.7600 -20.7548 -20.7547
   -20.7545 -20.7544 -10.5188 -10.5187 -10.3601 -10.3600 -10.3172 -10.3171
   -10.2409 -10.2409 -10.2168 -10.2168 -10.1754 -10.1754  -0.1019  -0.1019
     0.3043   0.3043   0.3458   0.3458   0.5425   0.5426   0.6433   0.6433
     0.8765   0.8765   1.1206   1.1206   1.2627   1.2627   1.4531   1.4531
     1.5463   1.5463   1.6268   1.6268   1.7818   1.7818   1.8966   1.8966
     2.0105   2.0105   2.0911   2.0911   2.1795   2.1795   2.2847   2.2847
     2.4251   2.4251   7.1674   7.1674   7.3281   7.3281   7.3995   7.3995
     8.7029   8.7030   9.0403   9.0403   9.2844   9.2844   9.4589   9.4589
     9.6531   9.6532  10.2252  10.2252  10.5298  10.5298  10.7144  10.7144
    10.9102  10.9102

          k = 0.0359-0.0417-0.0255 (103156 PWs)   bands (ev):

   -56.2758 -56.2757 -56.2757 -56.2757 -56.2728 -56.2728 -56.2727 -56.2727
   -56.2580 -56.2580 -56.2579 -56.2579 -56.2529 -56.2528 -56.2528 -56.2528
   -56.2505 -56.2505 -56.2504 -56.2504 -56.2369 -56.2369 -56.2368 -56.2368
   -56.2248 -56.2248 -56.2247 -56.2247 -56.2211 -56.2211 -56.2211 -56.2211
   -56.2100 -56.2100 -56.2100 -56.2099 -56.2071 -56.2071 -56.2070 -56.2070
   -56.1919 -56.1919 -56.1918 -56.1918 -56.1909 -56.1909 -56.1909 -56.1909
   -56.1899 -56.1899 -56.1899 -56.1898 -56.1838 -56.1838 -56.1838 -56.1838
   -56.1808 -56.1808 -56.1808 -56.1808 -46.9321 -46.9320 -42.0680 -42.0680
   -41.7993 -41.7993 -41.7709 -41.7708 -20.7601 -20.7600 -20.7547 -20.7547
   -20.7545 -20.7544 -10.5869 -10.5869 -10.3284 -10.3284 -10.2964 -10.2963
   -10.2274 -10.2274 -10.2001 -10.2000 -10.1834 -10.1834  -0.1225  -0.1225
     0.2196   0.2196   0.3155   0.3155   0.4327   0.4327   0.4898   0.4899
     0.9667   0.9667   1.1575   1.1575   1.3671   1.3671   1.4919   1.4920
     1.5181   1.5181   1.6280   1.6280   1.7346   1.7346   1.9272   1.9273
     2.0230   2.0230   2.0946   2.0946   2.3446   2.3447   2.4127   2.4127
     2.4579   2.4579   7.2307   7.2307   7.2917   7.2918   7.3797   7.3798
     8.5273   8.5273   8.8610   8.8610   9.1076   9.1076   9.5566   9.5566
     9.7091   9.7091  10.0799  10.0799  10.1952  10.1952  10.2780  10.2780
    11.0118  11.0118

          k =-0.0718 0.0000-0.0255 (103168 PWs)   bands (ev):

   -56.2758 -56.2758 -56.2757 -56.2757 -56.2728 -56.2728 -56.2727 -56.2727
   -56.2580 -56.2580 -56.2579 -56.2579 -56.2529 -56.2529 -56.2528 -56.2528
   -56.2505 -56.2505 -56.2504 -56.2504 -56.2369 -56.2369 -56.2368 -56.2368
   -56.2248 -56.2248 -56.2247 -56.2247 -56.2211 -56.2211 -56.2211 -56.2211
   -56.2100 -56.2100 -56.2100 -56.2099 -56.2071 -56.2071 -56.2070 -56.2070
   -56.1919 -56.1919 -56.1918 -56.1918 -56.1909 -56.1909 -56.1909 -56.1909
   -56.1899 -56.1899 -56.1899 -56.1898 -56.1838 -56.1838 -56.1838 -56.1838
   -56.1808 -56.1808 -56.1808 -56.1808 -46.9321 -46.9320 -42.0680 -42.0680
   -41.7993 -41.7993 -41.7709 -41.7708 -20.7600 -20.7599 -20.7548 -20.7547
   -20.7545 -20.7544 -10.5348 -10.5348 -10.3476 -10.3476 -10.3235 -10.3235
   -10.2698 -10.2698 -10.1916 -10.1915 -10.1605 -10.1605   0.0663   0.0663
     0.3785   0.3785   0.4253   0.4253   0.5085   0.5085   0.7341   0.7341
     0.8375   0.8376   1.0045   1.0045   1.1202   1.1202   1.1472   1.1472
     1.5898   1.5898   1.6748   1.6749   1.7172   1.7173   1.8370   1.8370
     2.0447   2.0447   2.0617   2.0617   2.1978   2.1978   2.3645   2.3645
     2.4210   2.4210   7.2736   7.2737   7.3124   7.3125   7.4276   7.4277
     8.7477   8.7477   8.9071   8.9071   9.2883   9.2884   9.8001   9.8001
    10.0612  10.0613  10.1565  10.1565  10.3743  10.3743  10.7162  10.7162
    11.1703  11.1703

          k =-0.0718 0.0000 0.0127 (103191 PWs)   bands (ev):

   -56.2758 -56.2757 -56.2757 -56.2757 -56.2728 -56.2728 -56.2727 -56.2727
   -56.2580 -56.2580 -56.2579 -56.2579 -56.2529 -56.2529 -56.2528 -56.2528
   -56.2505 -56.2505 -56.2504 -56.2504 -56.2369 -56.2369 -56.2368 -56.2368
   -56.2248 -56.2248 -56.2247 -56.2247 -56.2211 -56.2211 -56.2211 -56.2211
   -56.2100 -56.2100 -56.2100 -56.2099 -56.2071 -56.2071 -56.2070 -56.2070
   -56.1919 -56.1919 -56.1918 -56.1918 -56.1909 -56.1909 -56.1909 -56.1909
   -56.1899 -56.1899 -56.1899 -56.1898 -56.1838 -56.1838 -56.1838 -56.1838
   -56.1808 -56.1808 -56.1808 -56.1808 -46.9321 -46.9320 -42.0680 -42.0680
   -41.7993 -41.7993 -41.7709 -41.7708 -20.7601 -20.7600 -20.7548 -20.7547
   -20.7545 -20.7544 -10.5358 -10.4800 -10.3565 -10.3330 -10.3298 -10.3039
   -10.2977 -10.2794 -10.2208 -10.1892 -10.1717 -10.1607  -0.0927   0.0943
     0.2393   0.3013   0.3714   0.4207   0.4611   0.5343   0.5398   0.6039
     0.7134   0.9314   0.9544   1.1273   1.2312   1.3050   1.3663   1.4510
     1.5119   1.6836   1.6909   1.7283   1.7693   1.7913   1.8426   1.9878
     2.0141   2.0631   2.0808   2.0880   2.1358   2.1962   2.3167   2.3347
     2.3701   2.4784   7.1557   7.2277   7.2640   7.2681   7.3702   7.3857
     8.6347   8.8940   8.9591   9.0582   9.1756   9.3591   9.3727   9.6054
     9.7359   9.7418   9.9002   9.9425  10.1324  10.2229  10.2841  10.4337
    11.0608  11.2115

          k =-0.0718 0.0000-0.1020 (103172 PWs)   bands (ev):

   -56.2758 -56.2757 -56.2757 -56.2757 -56.2728 -56.2728 -56.2727 -56.2727
   -56.2580 -56.2580 -56.2579 -56.2579 -56.2529 -56.2528 -56.2528 -56.2528
   -56.2505 -56.2505 -56.2504 -56.2504 -56.2369 -56.2369 -56.2368 -56.2368
   -56.2248 -56.2248 -56.2247 -56.2247 -56.2211 -56.2211 -56.2211 -56.2211
   -56.2100 -56.2100 -56.2100 -56.2099 -56.2071 -56.2071 -56.2070 -56.2070
   -56.1919 -56.1919 -56.1918 -56.1918 -56.1909 -56.1909 -56.1909 -56.1909
   -56.1899 -56.1899 -56.1899 -56.1898 -56.1838 -56.1838 -56.1838 -56.1838
   -56.1808 -56.1808 -56.1808 -56.1808 -46.9321 -46.9320 -42.0680 -42.0680
   -41.7993 -41.7993 -41.7709 -41.7708 -20.7601 -20.7600 -20.7549 -20.7548
   -20.7545 -20.7544 -10.4803 -10.4803 -10.3526 -10.3526 -10.3223 -10.3223
   -10.2764 -10.2764 -10.2270 -10.2270 -10.1723 -10.1723  -0.0784  -0.0784
     0.1875   0.1875   0.3233   0.3233   0.3898   0.3898   0.6077   0.6077
     0.8610   0.8610   1.1777   1.1777   1.2973   1.2974   1.5676   1.5676
     1.6414   1.6414   1.6965   1.6966   1.8208   1.8208   1.8454   1.8454
     2.0435   2.0435   2.0947   2.0948   2.2797   2.2797   2.3080   2.3080
     2.4563   2.4563   7.1506   7.1507   7.2200   7.2201   7.2692   7.2693
     8.6307   8.6308   9.0230   9.0231   9.1835   9.1835   9.3156   9.3156
     9.5678   9.5678   9.7580   9.7580  10.0922  10.0922  10.3977  10.3977
    11.0403  11.0403

          k =-0.0718-0.0417-0.0255 (103168 PWs)   bands (ev):

   -56.2758 -56.2758 -56.2757 -56.2757 -56.2728 -56.2728 -56.2727 -56.2727
   -56.2580 -56.2580 -56.2579 -56.2579 -56.2529 -56.2529 -56.2528 -56.2528
   -56.2505 -56.2505 -56.2504 -56.2504 -56.2369 -56.2369 -56.2368 -56.2368
   -56.2248 -56.2248 -56.2247 -56.2247 -56.2211 -56.2211 -56.2211 -56.2211
   -56.2100 -56.2100 -56.2100 -56.2099 -56.2071 -56.2071 -56.2070 -56.2070
   -56.1919 -56.1919 -56.1918 -56.1918 -56.1909 -56.1909 -56.1909 -56.1909
   -56.1899 -56.1899 -56.1899 -56.1898 -56.1838 -56.1838 -56.1838 -56.1838
   -56.1808 -56.1808 -56.1808 -56.1808 -46.9321 -46.9320 -42.0680 -42.0680
   -41.7993 -41.7993 -41.7709 -41.7708 -20.7600 -20.7599 -20.7548 -20.7547
   -20.7545 -20.7544 -10.5268 -10.5267 -10.3907 -10.3907 -10.2876 -10.2876
   -10.2531 -10.2531 -10.2147 -10.2147 -10.1548 -10.1548   0.0168   0.0168
     0.2626   0.2626   0.4765   0.4765   0.6428   0.6428   0.6553   0.6553
     0.9199   0.9199   0.9806   0.9807   1.1996   1.1997   1.3248   1.3248
     1.4963   1.4963   1.5123   1.5123   1.7989   1.7989   1.8380   1.8380
     1.9976   1.9976   2.0771   2.0771   2.1527   2.1528   2.3123   2.3123
     2.4340   2.4340   7.2232   7.2232   7.3574   7.3574   7.4805   7.4806
     8.6070   8.6070   9.3405   9.3405   9.4572   9.4572   9.7266   9.7266
     9.7643   9.7643  10.0823  10.0823  10.6209  10.6209  10.7957  10.7957
    10.9533  10.9533

          k =-0.0718-0.0417 0.0127 (103190 PWs)   bands (ev):

   -56.2758 -56.2757 -56.2757 -56.2757 -56.2728 -56.2728 -56.2727 -56.2727
   -56.2580 -56.2580 -56.2579 -56.2579 -56.2529 -56.2529 -56.2528 -56.2528
   -56.2505 -56.2505 -56.2504 -56.2504 -56.2369 -56.2369 -56.2368 -56.2368
   -56.2248 -56.2248 -56.2247 -56.2247 -56.2211 -56.2211 -56.2211 -56.2211
   -56.2100 -56.2100 -56.2100 -56.2099 -56.2071 -56.2071 -56.2070 -56.2070
   -56.1919 -56.1919 -56.1918 -56.1918 -56.1909 -56.1909 -56.1909 -56.1909
   -56.1899 -56.1899 -56.1899 -56.1898 -56.1838 -56.1838 -56.1838 -56.1838
   -56.1808 -56.1808 -56.1808 -56.1808 -46.9321 -46.9320 -42.0680 -42.0680
   -41.7993 -41.7993 -41.7709 -41.7708 -20.7601 -20.7600 -20.7548 -20.7548
   -20.7545 -20.7544 -10.5036 -10.5036 -10.3759 -10.3759 -10.3129 -10.3129
   -10.2533 -10.2533 -10.2174 -10.2174 -10.1661 -10.1661  -0.1073  -0.1073
     0.2948   0.2948   0.3970   0.3970   0.5051   0.5051   0.6448   0.6449
     0.9471   0.9471   1.0697   1.0697   1.1993   1.1993   1.4827   1.4827
     1.5291   1.5291   1.6259   1.6259   1.7480   1.7480   1.9491   1.9491
     2.0526   2.0527   2.0929   2.0930   2.1530   2.1530   2.2654   2.2655
     2.4416   2.4416   7.1380   7.1380   7.3457   7.3457   7.4066   7.4067
     8.7565   8.7565   8.9619   8.9619   9.1947   9.1947   9.4875   9.4875
     9.7389   9.7389  10.1977  10.1977  10.5630  10.5630  10.7889  10.7889
    10.8743  10.8743

          k =-0.0718-0.0417-0.1020 (103264 PWs)   bands (ev):

   -56.2758 -56.2757 -56.2757 -56.2757 -56.2728 -56.2728 -56.2727 -56.2727
   -56.2580 -56.2580 -56.2579 -56.2579 -56.2529 -56.2528 -56.2528 -56.2528
   -56.2505 -56.2505 -56.2504 -56.2504 -56.2369 -56.2369 -56.2368 -56.2368
   -56.2248 -56.2248 -56.2247 -56.2247 -56.2211 -56.2211 -56.2211 -56.2211
   -56.2100 -56.2100 -56.2100 -56.2099 -56.2071 -56.2071 -56.2070 -56.2070
   -56.1919 -56.1919 -56.1918 -56.1918 -56.1909 -56.1909 -56.1909 -56.1909
   -56.1899 -56.1899 -56.1899 -56.1898 -56.1838 -56.1838 -56.1838 -56.1838
   -56.1808 -56.1808 -56.1808 -56.1808 -46.9321 -46.9320 -42.0680 -42.0680
   -41.7993 -41.7993 -41.7709 -41.7708 -20.7601 -20.7600 -20.7549 -20.7548
   -20.7545 -20.7544 -10.4657 -10.4657 -10.3869 -10.3869 -10.3268 -10.3268
   -10.2488 -10.2488 -10.2163 -10.2163 -10.1863 -10.1862  -0.2059  -0.2059
     0.2426   0.2427   0.3302   0.3302   0.4934   0.4934   0.6857   0.6857
     0.9556   0.9556   1.1118   1.1118   1.2147   1.2147   1.5199   1.5199
     1.5487   1.5487   1.6823   1.6823   1.7402   1.7402   1.9840   1.9840
     2.1133   2.1134   2.1358   2.1358   2.2726   2.2727   2.3063   2.3063
     2.3669   2.3669   7.0313   7.0313   7.2997   7.2998   7.3555   7.3555
     8.6869   8.6869   8.7784   8.7784   9.1449   9.1449   9.2486   9.2486
     9.7479   9.7479  10.1584  10.1585  10.6114  10.6114  10.7738  10.7738
    10.8713  10.8714

     the Fermi energy is     4.8540 ev

!    total energy              =   -6740.56288246 Ry

     total all-electron energy =   -114993.578840 Ry
     estimated scf accuracy    <          8.5E-09 Ry
     smearing contrib. (-TS)   =      -0.00000000 Ry
     internal energy E=F+TS    =   -6740.56288246 Ry

     The total energy is F=E-TS. E is the sum of the following terms:
     one-electron contribution =   -3515.78276209 Ry
     hartree contribution      =    1687.89716348 Ry
     xc contribution           =    -503.21659941 Ry
     ewald contribution        =   -1690.68325647 Ry
     one-center paw contrib.   =   -2718.77742798 Ry

     convergence has been achieved in   9 iterations

     Forces acting on atoms (cartesian axes, Ry/au):

     atom    1 type  1   force =     0.00000000   -0.00206387    0.00000000
     atom    2 type  1   force =     0.00000000    0.00042202    0.00000000
     atom    3 type  1   force =     0.00000000   -0.00039781    0.00000000
     atom    4 type  1   force =     0.00000000   -0.00206305    0.00000000
     atom    5 type  1   force =     0.00000000    0.00042796    0.00000000
     atom    6 type  1   force =     0.00000000   -0.00040078    0.00000000
     atom    7 type  2   force =     0.00000000    0.00081733    0.00000000
     atom    8 type  2   force =     0.00000000    0.00082161    0.00000000
     atom    9 type  3   force =     0.00088086    0.00151583    0.00389003
     atom   10 type  3   force =     0.00319094   -0.00241067    0.00127349
     atom   11 type  3   force =    -0.00319094   -0.00241067   -0.00127349
     atom   12 type  3   force =    -0.00088086    0.00151583   -0.00389003
     atom   13 type  3   force =    -0.00318750    0.00147673    0.00333137
     atom   14 type  3   force =     0.00318750    0.00147673   -0.00333137
     atom   15 type  3   force =     0.00087598    0.00147961    0.00392685
     atom   16 type  3   force =     0.00316332   -0.00236041    0.00125263
     atom   17 type  3   force =    -0.00316332   -0.00236041   -0.00125263
     atom   18 type  3   force =    -0.00087598    0.00147961   -0.00392685
     atom   19 type  3   force =    -0.00313139    0.00151721    0.00332941
     atom   20 type  3   force =     0.00313139    0.00151721   -0.00332941

     Total force =     0.015700     Total SCF correction =     0.000330


     Computing stress (Cartesian axis) and pressure

          total   stress  (Ry/bohr**3)                   (kbar)     P=       -4.38
  -0.00003291   0.00000000   0.00000130           -4.84        0.00        0.19
   0.00000000  -0.00003442   0.00000000            0.00       -5.06        0.00
   0.00000130   0.00000000  -0.00002193            0.19        0.00       -3.23


     Writing output data file ./pwscf.save/
 
     init_run     :     11.76s CPU     12.08s WALL (       1 calls)
     electrons    :    262.63s CPU    267.22s WALL (       1 calls)
     forces       :      4.26s CPU      4.32s WALL (       1 calls)
     stress       :     35.24s CPU     35.43s WALL (       1 calls)

     Called by init_run:
     wfcinit      :      8.31s CPU      8.54s WALL (       1 calls)
     potinit      :      1.15s CPU      1.17s WALL (       1 calls)
     hinit0       :      1.53s CPU      1.54s WALL (       1 calls)

     Called by electrons:
     c_bands      :    216.58s CPU    219.82s WALL (      10 calls)
     sum_band     :     41.78s CPU     42.56s WALL (      10 calls)
     v_of_rho     :      1.20s CPU      1.22s WALL (      10 calls)
     newd         :      2.11s CPU      2.45s WALL (      10 calls)
     PAW_pot      :      0.89s CPU      0.90s WALL (      10 calls)
     mix_rho      :      0.26s CPU      0.27s WALL (      10 calls)

     Called by c_bands:
     init_us_2    :      2.07s CPU      2.08s WALL (     230 calls)
     cegterg      :    202.37s CPU    205.50s WALL (     100 calls)

     Called by *egterg:
     cdiaghg      :     13.38s CPU     13.55s WALL (     534 calls)
     h_psi        :    145.50s CPU    147.60s WALL (     554 calls)
     s_psi        :      9.26s CPU      9.28s WALL (     554 calls)
     g_psi        :      0.43s CPU      0.43s WALL (     444 calls)

     Called by h_psi:
     h_psi:calbec :      9.94s CPU      9.98s WALL (     554 calls)
     vloc_psi     :    124.92s CPU    126.24s WALL (     554 calls)
     add_vuspsi   :      9.42s CPU      9.46s WALL (     554 calls)

     General routines
     calbec       :     22.79s CPU     22.87s WALL (     704 calls)
     fft          :      1.23s CPU      1.24s WALL (     154 calls)
     ffts         :      0.09s CPU      0.09s WALL (      20 calls)
     fftw         :    133.21s CPU    134.58s WALL (   86806 calls)
     interpolate  :      0.13s CPU      0.14s WALL (      10 calls)
 
     Parallel routines
     fft_scatt_xy :     15.60s CPU     15.77s WALL (   86980 calls)
     fft_scatt_yz :     62.34s CPU     62.98s WALL (   86980 calls)
 
     PWSCF        :   5m16.43s CPU   5m24.18s WALL

 
   This run was terminated on:  17:27:24   2Aug2021            

=------------------------------------------------------------------------------=
   JOB DONE.
=------------------------------------------------------------------------------=
