
     Program PWSCF v.6.7MaX starts on  3Aug2021 at 12:29:53 

     This program is part of the open-source Quantum ESPRESSO suite
     for quantum simulation of materials; please cite
         "P. Giannozzi et al., J. Phys.:Condens. Matter 21 395502 (2009);
         "P. Giannozzi et al., J. Phys.:Condens. Matter 29 465901 (2017);
          URL http://www.quantum-espresso.org", 
     in publications or presentations arising from this work. More details at
     http://www.quantum-espresso.org/quote

     Parallel version (MPI), running on    48 processors

     MPI processes distributed on     2 nodes
     K-points division:     npool     =       2
     R & G space division:  proc/nbgrp/npool/nimage =      24
     Waiting for input...
     Reading input from standard input
Warning: card &CELL ignored
Warning: card CELL_DYNAMICS             = 'BFGS', ignored
Warning: card PRESS                     = '0.0', ignored
Warning: card PRESS_CONV_THR            = '0.5', ignored
Warning: card / ignored
     Message from routine read_cards :
     DEPRECATED: no units specified in CELL_PARAMETERS card

     Current dimensions of program PWSCF are:
     Max number of different atomic species (ntypx) = 10
     Max number of k-points (npk) =  40000
     Max angular momentum in pseudopotentials (lmaxx) =  3
     Message from routine cell_base_init:
     DEPRECATED: use true lattice parameter, not A to a.u. conversion factor
 end of file reached, closing tag not found
     file Er.pbe-spdn-kjpaw_psl.1.0.0.UPF: wavefunction(s)  6S 5D renormalized
     file Br.pbe-dn-kjpaw_psl.1.0.0.UPF: wavefunction(s)  4S 4P 3D renormalized

     Subspace diagonalization in iterative solution of the eigenvalue problem:
     a serial algorithm will be used

     Found symmetry operation: I + ( -0.5000 -0.5000  0.0000)
     This is a supercell, fractional translations are disabled
     Message from routine setup:
     using ibrav=0 with symmetry is DISCOURAGED, use correct ibrav instead
 
     Parallelization info
     --------------------
     sticks:   dense  smooth     PW     G-vecs:    dense   smooth      PW
     Min         594     474    128                38139    27283    3835
     Max         595     475    129                38141    27287    3839
     Sum       14271   11389   3073               915355   654837   92095
 


     bravais-lattice index     =            0
     lattice parameter (alat)  =       1.8897  a.u.
     unit-cell volume          =    3688.3023 (a.u.)^3
     number of atoms/cell      =           20
     number of atomic types    =            3
     number of electrons       =       244.00
     number of Kohn-Sham states=          146
     kinetic-energy cutoff     =     120.0000  Ry
     charge density cutoff     =     600.0000  Ry
     scf convergence threshold =      1.0E-08
     mixing beta               =       0.4000
     number of iterations used =            8  plain     mixing
     Exchange-correlation= SLA  PW   PBX  PBC
                           (   1   4   3   4   0   0   0)

     celldm(1)=   1.889726  celldm(2)=   0.000000  celldm(3)=   0.000000
     celldm(4)=   0.000000  celldm(5)=   0.000000  celldm(6)=   0.000000

     crystal axes: (cart. coord. in units of alat)
               a(1) = (   6.967356   0.000000   0.000000 )  
               a(2) = (   0.000000  11.998880   0.000000 )  
               a(3) = (  -2.324723   0.000000   6.537643 )  

     reciprocal axes: (cart. coord. in units 2 pi/alat)
               b(1) = (  0.143526  0.000000  0.051037 )  
               b(2) = (  0.000000  0.083341  0.000000 )  
               b(3) = (  0.000000  0.000000  0.152960 )  


     PseudoPot. # 1 for Li read from file:
     /central/groups/SeeGroup/qe_pseudopotentials/Li.pbe-s-kjpaw_psl.1.0.0.UPF
     MD5 check sum: cc502796ee09d8b62ac346ee26e59beb
     Pseudo is Projector augmented-wave, Zval =  3.0
     Generated using &quot;atomic&quot; code by A. Dal Corso  v.6.3
     Shape of augmentation charge: PSQ
     Using radial grid of 1017 points,  4 beta functions with: 
                l(1) =   0
                l(2) =   0
                l(3) =   1
                l(4) =   1
     Q(r) pseudized with 0 coefficients 


     PseudoPot. # 2 for Er read from file:
     /central/groups/SeeGroup/qe_pseudopotentials/Er.pbe-spdn-kjpaw_psl.1.0.0.UPF
     MD5 check sum: a923254af2aef992cff3e18bc73f2922
     Pseudo is Projector augmented-wave + core cor, Zval = 11.0
     Generated using &quot;atomic&quot; code by A. Dal Corso  v.6.2.2
     Shape of augmentation charge: PSQ
     Using radial grid of 1267 points,  6 beta functions with: 
                l(1) =   0
                l(2) =   0
                l(3) =   1
                l(4) =   1
                l(5) =   2
                l(6) =   2
     Q(r) pseudized with 0 coefficients 


     PseudoPot. # 3 for Br read from file:
     /central/groups/SeeGroup/qe_pseudopotentials/Br.pbe-dn-kjpaw_psl.1.0.0.UPF
     MD5 check sum: 4ca4ebabfd6065c7bb707b2ebe99e9b3
     Pseudo is Projector augmented-wave + core cor, Zval = 17.0
     Generated using &quot;atomic&quot; code by A. Dal Corso  v.6.3
     Shape of augmentation charge: PSQ
     Using radial grid of 1213 points,  6 beta functions with: 
                l(1) =   0
                l(2) =   0
                l(3) =   1
                l(4) =   1
                l(5) =   2
                l(6) =   2
     Q(r) pseudized with 0 coefficients 


     atomic species   valence    mass     pseudopotential
        Li             3.00     6.94100     Li( 1.00)
        Er            11.00   167.25900     Er( 1.00)
        Br            17.00    79.90400     Br( 1.00)

      2 Sym. Ops. (no inversion) found



   Cartesian axes

     site n.     atom                  positions (alat units)
         1           Li  tau(   1) = (   3.4836780   9.9564306   0.0000000  )
         2           Li  tau(   2) = (   3.4836780   2.0173957   0.0000000  )
         3           Li  tau(   3) = (   2.3213165   7.8846440   3.2688215  )
         4           Li  tau(   4) = (   0.0000000   3.9569906   0.0000000  )
         5           Li  tau(   5) = (   0.0000000   8.0168357   0.0000000  )
         6           Li  tau(   6) = (  -1.1623615   1.8852040   3.2688215  )
         7           Er  tau(   7) = (   3.4836780   5.9699947   0.0000000  )
         8           Er  tau(   8) = (   0.0000000  11.9694347   0.0000000  )
         9           Br  tau(   9) = (   3.4471523   9.9581465   5.0158758  )
        10           Br  tau(  10) = (   3.5847273   1.9854607   4.9258002  )
        11           Br  tau(  11) = (   1.0579057   1.9854607   1.6118428  )
        12           Br  tau(  12) = (   1.1954807   9.9581465   1.5217672  )
        13           Br  tau(  13) = (  -0.0150075   0.0698395   4.9769442  )
        14           Br  tau(  14) = (   4.6576405   0.0698395   1.5606988  )
        15           Br  tau(  15) = (  -0.0365257   3.9587065   5.0158758  )
        16           Br  tau(  16) = (   0.1010493   7.9849007   4.9258002  )
        17           Br  tau(  17) = (   4.5415837   7.9849007   1.6118428  )
        18           Br  tau(  18) = (   4.6791587   3.9587065   1.5217672  )
        19           Br  tau(  19) = (   3.4686705   6.0692795   4.9769442  )
        20           Br  tau(  20) = (   1.1739625   6.0692795   1.5606988  )

     number of k points=     8  Fermi-Dirac smearing, width (Ry)=  0.0070
                       cart. coord. in units 2pi/alat
        k(    1) = (   0.0000000   0.0000000   0.0000000), wk =   0.2500000
        k(    2) = (   0.0000000   0.0000000  -0.0764802), wk =   0.2500000
        k(    3) = (   0.0000000  -0.0416706   0.0000000), wk =   0.2500000
        k(    4) = (   0.0000000  -0.0416706  -0.0764802), wk =   0.2500000
        k(    5) = (  -0.0717632   0.0000000  -0.0255183), wk =   0.2500000
        k(    6) = (  -0.0717632   0.0000000  -0.1019985), wk =   0.2500000
        k(    7) = (  -0.0717632  -0.0416706  -0.0255183), wk =   0.2500000
        k(    8) = (  -0.0717632  -0.0416706  -0.1019985), wk =   0.2500000

     Dense  grid:   915355 G-vectors     FFT dimensions: ( 108, 180, 108)

     Smooth grid:   654837 G-vectors     FFT dimensions: (  96, 160,  96)

     Estimated max dynamical RAM per process >     148.64 MB

     Estimated total dynamical RAM >       6.97 GB

     Initial potential from superposition of free atoms

     starting charge  243.93496, renormalised to  244.00000
     Starting wfcs are  164 randomized atomic wfcs
     Checking if some PAW data can be deallocated... 

     total cpu time spent up to now is        5.6 secs

     Self-consistent Calculation

     iteration #  1     ecut=   120.00 Ry     beta= 0.40
     Davidson diagonalization with overlap
     ethr =  1.00E-02,  avg # of iterations =  5.4

     Threshold (ethr) on eigenvalues was too large:
     Diagonalizing with lowered threshold

     Davidson diagonalization with overlap
     ethr =  1.18E-04,  avg # of iterations =  8.0

     total cpu time spent up to now is       21.7 secs

     total energy              =   -6740.52789784 Ry
     estimated scf accuracy    <       0.28364179 Ry

     iteration #  2     ecut=   120.00 Ry     beta= 0.40
     Davidson diagonalization with overlap
     ethr =  1.16E-04,  avg # of iterations =  2.0

     total cpu time spent up to now is       28.0 secs

     total energy              =   -6740.55408052 Ry
     estimated scf accuracy    <       0.03902955 Ry

     iteration #  3     ecut=   120.00 Ry     beta= 0.40
     Davidson diagonalization with overlap
     ethr =  1.60E-05,  avg # of iterations =  7.9

     total cpu time spent up to now is       36.4 secs

     total energy              =   -6740.55917068 Ry
     estimated scf accuracy    <       0.00547858 Ry

     iteration #  4     ecut=   120.00 Ry     beta= 0.40
     Davidson diagonalization with overlap
     ethr =  2.25E-06,  avg # of iterations =  6.2

     total cpu time spent up to now is       44.2 secs

     total energy              =   -6740.55985868 Ry
     estimated scf accuracy    <       0.00077818 Ry

     iteration #  5     ecut=   120.00 Ry     beta= 0.40
     Davidson diagonalization with overlap
     ethr =  3.19E-07,  avg # of iterations =  2.0

     total cpu time spent up to now is       50.3 secs

     total energy              =   -6740.55999164 Ry
     estimated scf accuracy    <       0.00018011 Ry

     iteration #  6     ecut=   120.00 Ry     beta= 0.40
     Davidson diagonalization with overlap
     ethr =  7.38E-08,  avg # of iterations =  2.0

     total cpu time spent up to now is       56.4 secs

     total energy              =   -6740.56000882 Ry
     estimated scf accuracy    <       0.00003488 Ry

     iteration #  7     ecut=   120.00 Ry     beta= 0.40
     Davidson diagonalization with overlap
     ethr =  1.43E-08,  avg # of iterations =  2.0

     total cpu time spent up to now is       62.7 secs

     total energy              =   -6740.56001048 Ry
     estimated scf accuracy    <       0.00000093 Ry

     iteration #  8     ecut=   120.00 Ry     beta= 0.40
     Davidson diagonalization with overlap
     ethr =  3.82E-10,  avg # of iterations =  2.2

     total cpu time spent up to now is       69.7 secs

     total energy              =   -6740.56001059 Ry
     estimated scf accuracy    <       0.00000013 Ry

     iteration #  9     ecut=   120.00 Ry     beta= 0.40
     Davidson diagonalization with overlap
     ethr =  5.17E-11,  avg # of iterations =  2.1

     total cpu time spent up to now is       76.1 secs

     End of self-consistent calculation

          k = 0.0000 0.0000 0.0000 ( 81869 PWs)   bands (ev):

   -56.2725 -56.2724 -56.2724 -56.2724 -56.2695 -56.2695 -56.2694 -56.2694
   -56.2548 -56.2548 -56.2547 -56.2547 -56.2496 -56.2496 -56.2495 -56.2495
   -56.2472 -56.2472 -56.2471 -56.2471 -56.2342 -56.2341 -56.2341 -56.2341
   -56.2220 -56.2220 -56.2219 -56.2219 -56.2184 -56.2183 -56.2183 -56.2183
   -56.2076 -56.2075 -56.2075 -56.2075 -56.2046 -56.2046 -56.2046 -56.2046
   -56.1889 -56.1889 -56.1889 -56.1889 -56.1880 -56.1880 -56.1879 -56.1879
   -56.1874 -56.1873 -56.1873 -56.1873 -56.1811 -56.1811 -56.1811 -56.1811
   -56.1781 -56.1781 -56.1781 -56.1781 -46.9331 -46.9331 -42.0694 -42.0694
   -41.8000 -41.7999 -41.7715 -41.7715 -20.7610 -20.7609 -20.7556 -20.7554
   -20.7553 -20.7553 -10.7195 -10.5383 -10.3925 -10.2858 -10.2760 -10.2668
   -10.2343 -10.2296 -10.2220 -10.1576 -10.1522 -10.1265  -0.1669  -0.1578
     0.2195   0.2459   0.2649   0.4090   0.4563   0.6235   0.6739   0.7426
     0.8636   0.8637   0.8745   0.9999   1.1265   1.2428   1.2655   1.2690
     1.2744   1.4844   1.5268   1.6967   1.7420   1.9398   1.9822   2.0188
     2.0572   2.0748   2.1891   2.2425   2.3340   2.4643   2.5297   2.5302
     2.5749   2.5810   7.0473   7.3028   7.4454   7.4655   7.4669   7.5187
     7.5477   8.7254   8.7430   8.8094   9.1075   9.1640   9.3653   9.3991
     9.4767   9.7249   9.9182  10.3117  10.3260  10.3777  10.6711  10.8581
    10.9501  11.1017

          k = 0.0000 0.0000-0.0765 ( 81848 PWs)   bands (ev):

   -56.2724 -56.2724 -56.2724 -56.2724 -56.2695 -56.2695 -56.2694 -56.2694
   -56.2548 -56.2548 -56.2547 -56.2547 -56.2496 -56.2496 -56.2495 -56.2495
   -56.2472 -56.2472 -56.2471 -56.2471 -56.2342 -56.2341 -56.2341 -56.2341
   -56.2220 -56.2220 -56.2219 -56.2219 -56.2184 -56.2183 -56.2183 -56.2183
   -56.2076 -56.2075 -56.2075 -56.2075 -56.2046 -56.2046 -56.2046 -56.2046
   -56.1889 -56.1889 -56.1889 -56.1889 -56.1880 -56.1880 -56.1879 -56.1879
   -56.1874 -56.1873 -56.1873 -56.1873 -56.1811 -56.1811 -56.1811 -56.1811
   -56.1781 -56.1781 -56.1781 -56.1781 -46.9331 -46.9331 -42.0694 -42.0694
   -41.8000 -41.7999 -41.7715 -41.7715 -20.7610 -20.7610 -20.7556 -20.7555
   -20.7554 -20.7553 -10.6082 -10.4554 -10.3775 -10.3422 -10.3172 -10.2823
   -10.2703 -10.2553 -10.2383 -10.1806 -10.1607 -10.1397   0.0265   0.1848
     0.1923   0.2502   0.3953   0.4998   0.5844   0.6750   0.6870   0.7363
     0.7839   0.9506   0.9921   1.0463   1.0965   1.2102   1.2722   1.3618
     1.3900   1.4558   1.4678   1.5341   1.6706   1.7972   1.8886   1.9014
     1.9554   2.0715   2.1236   2.1350   2.1458   2.2896   2.3003   2.3365
     2.4585   2.4617   7.1908   7.2150   7.2501   7.3271   7.4873   7.5779
     8.6397   8.7937   8.9085   9.0794   9.1935   9.4471   9.8906   9.9492
     9.9584  10.0385  10.0417  10.1879  10.2488  10.3069  10.7766  10.8088
    10.9752  10.9887

          k = 0.0000-0.0417 0.0000 ( 81836 PWs)   bands (ev):

   -56.2725 -56.2724 -56.2724 -56.2724 -56.2695 -56.2695 -56.2694 -56.2694
   -56.2548 -56.2548 -56.2547 -56.2547 -56.2496 -56.2495 -56.2495 -56.2495
   -56.2472 -56.2472 -56.2471 -56.2471 -56.2342 -56.2341 -56.2341 -56.2341
   -56.2220 -56.2220 -56.2219 -56.2219 -56.2184 -56.2183 -56.2183 -56.2183
   -56.2076 -56.2075 -56.2075 -56.2075 -56.2046 -56.2046 -56.2046 -56.2046
   -56.1889 -56.1889 -56.1889 -56.1889 -56.1880 -56.1880 -56.1879 -56.1879
   -56.1874 -56.1873 -56.1873 -56.1873 -56.1811 -56.1811 -56.1811 -56.1811
   -56.1781 -56.1781 -56.1781 -56.1781 -46.9331 -46.9331 -42.0694 -42.0694
   -41.8000 -41.7999 -41.7715 -41.7715 -20.7610 -20.7609 -20.7555 -20.7555
   -20.7554 -20.7553 -10.6513 -10.6513 -10.3150 -10.3150 -10.2870 -10.2870
   -10.1918 -10.1918 -10.1795 -10.1795 -10.1760 -10.1760  -0.1218  -0.1218
     0.1056   0.1056   0.3391   0.3391   0.5112   0.5113   0.7143   0.7143
     0.8502   0.8502   1.0673   1.0673   1.1423   1.1424   1.3249   1.3249
     1.4278   1.4278   1.7561   1.7561   1.8690   1.8690   1.9411   1.9411
     1.9770   1.9770   2.2807   2.2807   2.3281   2.3281   2.4144   2.4144
     2.5484   2.5484   7.2708   7.2709   7.4557   7.4557   7.4806   7.4806
     8.1061   8.1061   8.8898   8.8898   9.0973   9.0973   9.3655   9.3655
     9.5746   9.5746  10.1342  10.1342  10.2472  10.2472  10.8147  10.8147
    11.1265  11.1265

          k = 0.0000-0.0417-0.0765 ( 81832 PWs)   bands (ev):

   -56.2724 -56.2724 -56.2724 -56.2724 -56.2695 -56.2695 -56.2694 -56.2694
   -56.2548 -56.2548 -56.2547 -56.2547 -56.2496 -56.2496 -56.2495 -56.2495
   -56.2472 -56.2472 -56.2471 -56.2471 -56.2342 -56.2341 -56.2341 -56.2341
   -56.2220 -56.2220 -56.2219 -56.2219 -56.2184 -56.2183 -56.2183 -56.2183
   -56.2076 -56.2075 -56.2075 -56.2075 -56.2046 -56.2046 -56.2046 -56.2046
   -56.1889 -56.1889 -56.1889 -56.1889 -56.1880 -56.1880 -56.1879 -56.1879
   -56.1874 -56.1873 -56.1873 -56.1873 -56.1811 -56.1811 -56.1811 -56.1811
   -56.1781 -56.1781 -56.1781 -56.1781 -46.9331 -46.9331 -42.0694 -42.0694
   -41.8000 -41.7999 -41.7715 -41.7715 -20.7610 -20.7610 -20.7555 -20.7554
   -20.7554 -20.7554 -10.5482 -10.5481 -10.3664 -10.3664 -10.2973 -10.2973
   -10.2301 -10.2301 -10.1910 -10.1910 -10.1808 -10.1808   0.0552   0.0552
     0.2440   0.2440   0.3750   0.3750   0.6033   0.6033   0.7484   0.7484
     0.9824   0.9824   0.9859   0.9859   1.2438   1.2438   1.2481   1.2481
     1.4929   1.4929   1.5612   1.5612   1.8072   1.8072   1.9008   1.9008
     1.9854   1.9854   1.9989   1.9989   2.1993   2.1993   2.2941   2.2941
     2.3970   2.3970   7.2830   7.2831   7.3441   7.3442   7.4705   7.4705
     8.5951   8.5952   9.2063   9.2063   9.4978   9.4978   9.8001   9.8001
    10.0171  10.0171  10.0204  10.0205  10.5289  10.5289  10.5869  10.5869
    11.1810  11.1811

          k =-0.0718 0.0000-0.0255 ( 81844 PWs)   bands (ev):

   -56.2724 -56.2724 -56.2724 -56.2724 -56.2695 -56.2695 -56.2694 -56.2694
   -56.2548 -56.2548 -56.2547 -56.2547 -56.2496 -56.2496 -56.2495 -56.2495
   -56.2472 -56.2472 -56.2471 -56.2471 -56.2342 -56.2341 -56.2341 -56.2341
   -56.2220 -56.2220 -56.2219 -56.2219 -56.2184 -56.2183 -56.2183 -56.2183
   -56.2076 -56.2075 -56.2075 -56.2075 -56.2046 -56.2046 -56.2046 -56.2046
   -56.1889 -56.1889 -56.1889 -56.1889 -56.1880 -56.1880 -56.1879 -56.1879
   -56.1874 -56.1873 -56.1873 -56.1873 -56.1811 -56.1811 -56.1811 -56.1811
   -56.1781 -56.1781 -56.1781 -56.1781 -46.9331 -46.9331 -42.0694 -42.0694
   -41.8000 -41.7999 -41.7715 -41.7715 -20.7610 -20.7609 -20.7556 -20.7555
   -20.7555 -20.7554 -10.5325 -10.5325 -10.3452 -10.3452 -10.3213 -10.3213
   -10.2675 -10.2675 -10.1894 -10.1894 -10.1582 -10.1582   0.0677   0.0677
     0.3800   0.3800   0.4268   0.4268   0.5100   0.5100   0.7356   0.7356
     0.8392   0.8392   1.0061   1.0061   1.1219   1.1219   1.1488   1.1488
     1.5916   1.5916   1.6766   1.6766   1.7189   1.7189   1.8387   1.8387
     2.0463   2.0463   2.0636   2.0636   2.1997   2.1997   2.3663   2.3663
     2.4229   2.4229   7.2738   7.2738   7.3126   7.3126   7.4276   7.4276
     8.7482   8.7482   8.9081   8.9081   9.2887   9.2887   9.8009   9.8009
    10.0624  10.0625  10.1576  10.1576  10.3752  10.3752  10.7173  10.7173
    11.1714  11.1715

          k =-0.0718 0.0000-0.1020 ( 81920 PWs)   bands (ev):

   -56.2724 -56.2724 -56.2724 -56.2724 -56.2695 -56.2695 -56.2694 -56.2694
   -56.2548 -56.2548 -56.2547 -56.2547 -56.2496 -56.2495 -56.2495 -56.2495
   -56.2472 -56.2472 -56.2471 -56.2471 -56.2342 -56.2341 -56.2341 -56.2341
   -56.2220 -56.2220 -56.2219 -56.2219 -56.2184 -56.2183 -56.2183 -56.2183
   -56.2076 -56.2075 -56.2075 -56.2075 -56.2046 -56.2046 -56.2046 -56.2046
   -56.1889 -56.1889 -56.1889 -56.1889 -56.1880 -56.1880 -56.1879 -56.1879
   -56.1874 -56.1873 -56.1873 -56.1873 -56.1811 -56.1811 -56.1811 -56.1811
   -56.1781 -56.1781 -56.1781 -56.1781 -46.9331 -46.9331 -42.0694 -42.0694
   -41.8000 -41.7999 -41.7715 -41.7715 -20.7610 -20.7610 -20.7556 -20.7556
   -20.7555 -20.7555 -10.4781 -10.4780 -10.3501 -10.3501 -10.3199 -10.3199
   -10.2742 -10.2742 -10.2249 -10.2249 -10.1701 -10.1701  -0.0770  -0.0770
     0.1891   0.1891   0.3248   0.3248   0.3913   0.3913   0.6095   0.6095
     0.8627   0.8627   1.1793   1.1793   1.2988   1.2988   1.5693   1.5694
     1.6432   1.6432   1.6982   1.6982   1.8224   1.8224   1.8472   1.8472
     2.0451   2.0451   2.0967   2.0967   2.2815   2.2816   2.3099   2.3099
     2.4581   2.4581   7.1508   7.1509   7.2203   7.2203   7.2692   7.2693
     8.6315   8.6315   9.0243   9.0243   9.1847   9.1847   9.3160   9.3160
     9.5686   9.5686   9.7591   9.7591  10.0931  10.0931  10.3987  10.3987
    11.0413  11.0414

          k =-0.0718-0.0417-0.0255 ( 81848 PWs)   bands (ev):

   -56.2724 -56.2724 -56.2724 -56.2724 -56.2695 -56.2695 -56.2694 -56.2694
   -56.2548 -56.2548 -56.2547 -56.2547 -56.2496 -56.2496 -56.2495 -56.2495
   -56.2472 -56.2472 -56.2471 -56.2471 -56.2342 -56.2341 -56.2341 -56.2341
   -56.2220 -56.2220 -56.2219 -56.2219 -56.2184 -56.2183 -56.2183 -56.2183
   -56.2076 -56.2075 -56.2075 -56.2075 -56.2046 -56.2046 -56.2046 -56.2046
   -56.1889 -56.1889 -56.1889 -56.1889 -56.1880 -56.1880 -56.1879 -56.1879
   -56.1874 -56.1873 -56.1873 -56.1873 -56.1811 -56.1811 -56.1811 -56.1811
   -56.1781 -56.1781 -56.1781 -56.1781 -46.9331 -46.9331 -42.0694 -42.0694
   -41.8000 -41.7999 -41.7715 -41.7715 -20.7610 -20.7609 -20.7556 -20.7556
   -20.7554 -20.7554 -10.5245 -10.5245 -10.3884 -10.3884 -10.2852 -10.2852
   -10.2509 -10.2509 -10.2124 -10.2124 -10.1526 -10.1526   0.0181   0.0182
     0.2641   0.2641   0.4780   0.4780   0.6445   0.6445   0.6568   0.6568
     0.9215   0.9216   0.9822   0.9822   1.2015   1.2015   1.3263   1.3263
     1.4980   1.4980   1.5139   1.5139   1.8006   1.8006   1.8398   1.8398
     1.9993   1.9993   2.0789   2.0789   2.1545   2.1545   2.3143   2.3143
     2.4359   2.4359   7.2234   7.2234   7.3575   7.3575   7.4805   7.4805
     8.6075   8.6075   9.3408   9.3409   9.4585   9.4585   9.7276   9.7276
     9.7654   9.7654  10.0833  10.0833  10.6220  10.6220  10.7967  10.7967
    10.9543  10.9543

          k =-0.0718-0.0417-0.1020 ( 81840 PWs)   bands (ev):

   -56.2724 -56.2724 -56.2724 -56.2724 -56.2695 -56.2695 -56.2694 -56.2694
   -56.2548 -56.2548 -56.2547 -56.2547 -56.2496 -56.2495 -56.2495 -56.2495
   -56.2472 -56.2472 -56.2471 -56.2471 -56.2342 -56.2341 -56.2341 -56.2341
   -56.2220 -56.2220 -56.2219 -56.2219 -56.2184 -56.2183 -56.2183 -56.2183
   -56.2076 -56.2075 -56.2075 -56.2075 -56.2046 -56.2046 -56.2046 -56.2046
   -56.1889 -56.1889 -56.1889 -56.1889 -56.1880 -56.1880 -56.1879 -56.1879
   -56.1874 -56.1873 -56.1873 -56.1873 -56.1811 -56.1811 -56.1811 -56.1811
   -56.1781 -56.1781 -56.1781 -56.1781 -46.9331 -46.9331 -42.0694 -42.0694
   -41.8000 -41.7999 -41.7715 -41.7715 -20.7610 -20.7610 -20.7556 -20.7556
   -20.7555 -20.7554 -10.4635 -10.4635 -10.3845 -10.3845 -10.3244 -10.3243
   -10.2465 -10.2465 -10.2141 -10.2141 -10.1841 -10.1841  -0.2045  -0.2045
     0.2442   0.2442   0.3317   0.3317   0.4950   0.4950   0.6875   0.6875
     0.9572   0.9572   1.1132   1.1132   1.2163   1.2163   1.5215   1.5215
     1.5503   1.5503   1.6840   1.6840   1.7421   1.7421   1.9857   1.9857
     2.1153   2.1153   2.1375   2.1375   2.2744   2.2744   2.3082   2.3082
     2.3687   2.3687   7.0315   7.0315   7.2998   7.2999   7.3556   7.3556
     8.6880   8.6880   8.7792   8.7792   9.1457   9.1457   9.2489   9.2489
     9.7494   9.7494  10.1596  10.1596  10.6126  10.6127  10.7747  10.7748
    10.8721  10.8722

     the Fermi energy is     4.8134 ev

!    total energy              =   -6740.56001062 Ry

     total all-electron energy =   -114993.575968 Ry
     estimated scf accuracy    <          8.3E-09 Ry
     smearing contrib. (-TS)   =      -0.00000000 Ry
     internal energy E=F+TS    =   -6740.56001062 Ry

     The total energy is F=E-TS. E is the sum of the following terms:
     one-electron contribution =   -3515.81350904 Ry
     hartree contribution      =    1687.92930358 Ry
     xc contribution           =    -503.21907583 Ry
     ewald contribution        =   -1690.68325647 Ry
     one-center paw contrib.   =   -2718.77347286 Ry

     convergence has been achieved in   9 iterations

     Forces acting on atoms (cartesian axes, Ry/au):

     atom    1 type  1   force =     0.00000000   -0.00208546    0.00000000
     atom    2 type  1   force =     0.00000000    0.00042484    0.00000000
     atom    3 type  1   force =     0.00000000   -0.00042072    0.00000000
     atom    4 type  1   force =     0.00000000   -0.00208400    0.00000000
     atom    5 type  1   force =     0.00000000    0.00042930    0.00000000
     atom    6 type  1   force =     0.00000000   -0.00042279    0.00000000
     atom    7 type  2   force =     0.00000000    0.00079449    0.00000000
     atom    8 type  2   force =     0.00000000    0.00079816    0.00000000
     atom    9 type  3   force =     0.00085806    0.00137838    0.00402336
     atom   10 type  3   force =     0.00329706   -0.00226820    0.00131395
     atom   11 type  3   force =    -0.00329706   -0.00226820   -0.00131395
     atom   12 type  3   force =    -0.00085806    0.00137838   -0.00402336
     atom   13 type  3   force =    -0.00328256    0.00150518    0.00346166
     atom   14 type  3   force =     0.00328256    0.00150518   -0.00346166
     atom   15 type  3   force =     0.00086530    0.00136206    0.00406541
     atom   16 type  3   force =     0.00327751   -0.00223440    0.00129907
     atom   17 type  3   force =    -0.00327751   -0.00223440   -0.00129907
     atom   18 type  3   force =    -0.00086530    0.00136206   -0.00406541
     atom   19 type  3   force =    -0.00323626    0.00154007    0.00346710
     atom   20 type  3   force =     0.00323626    0.00154007   -0.00346710

     Total force =     0.016022     Total SCF correction =     0.000325


     Computing stress (Cartesian axis) and pressure

          total   stress  (Ry/bohr**3)                   (kbar)     P=       -4.69
  -0.00003514   0.00000000   0.00000242           -5.17        0.00        0.36
   0.00000000  -0.00003721   0.00000000            0.00       -5.47        0.00
   0.00000242   0.00000000  -0.00002323            0.36        0.00       -3.42


     Writing output data file ./pwscf.save/
 
     init_run     :      4.59s CPU      4.87s WALL (       1 calls)
     electrons    :     66.07s CPU     70.73s WALL (       1 calls)
     forces       :      2.49s CPU      2.62s WALL (       1 calls)
     stress       :     10.40s CPU     10.67s WALL (       1 calls)

     Called by init_run:
     wfcinit      :      1.90s CPU      2.03s WALL (       1 calls)
     potinit      :      0.92s CPU      0.95s WALL (       1 calls)
     hinit0       :      1.22s CPU      1.24s WALL (       1 calls)

     Called by electrons:
     c_bands      :     52.83s CPU     54.93s WALL (      10 calls)
     sum_band     :      9.67s CPU     10.98s WALL (      10 calls)
     v_of_rho     :      0.75s CPU      0.77s WALL (      10 calls)
     newd         :      1.88s CPU      2.90s WALL (      10 calls)
     PAW_pot      :      0.95s CPU      0.97s WALL (      10 calls)
     mix_rho      :      0.15s CPU      0.16s WALL (      10 calls)

     Called by c_bands:
     init_us_2    :      0.60s CPU      0.61s WALL (      92 calls)
     cegterg      :     48.73s CPU     50.78s WALL (      40 calls)

     Called by *egterg:
     cdiaghg      :      6.52s CPU      6.62s WALL (     207 calls)
     h_psi        :     29.83s CPU     30.63s WALL (     215 calls)
     s_psi        :      2.83s CPU      2.84s WALL (     215 calls)
     g_psi        :      0.13s CPU      0.13s WALL (     171 calls)

     Called by h_psi:
     h_psi:calbec :      2.90s CPU      2.93s WALL (     215 calls)
     vloc_psi     :     23.86s CPU     24.24s WALL (     215 calls)
     add_vuspsi   :      2.85s CPU      2.87s WALL (     215 calls)

     General routines
     calbec       :      4.56s CPU      4.60s WALL (     275 calls)
     fft          :      0.64s CPU      0.66s WALL (     154 calls)
     ffts         :      0.04s CPU      0.04s WALL (      20 calls)
     fftw         :     24.94s CPU     25.33s WALL (   34690 calls)
     interpolate  :      0.07s CPU      0.08s WALL (      10 calls)
 
     Parallel routines
     fft_scatt_xy :      5.68s CPU      5.77s WALL (   34864 calls)
     fft_scatt_yz :      8.90s CPU      9.06s WALL (   34864 calls)
 
     PWSCF        :   1m24.70s CPU   1m31.93s WALL

 
   This run was terminated on:  12:31:25   3Aug2021            

=------------------------------------------------------------------------------=
   JOB DONE.
=------------------------------------------------------------------------------=
