
     Program PWSCF v.6.7MaX starts on  2Aug2021 at 17:32: 0 

     This program is part of the open-source Quantum ESPRESSO suite
     for quantum simulation of materials; please cite
         "P. Giannozzi et al., J. Phys.:Condens. Matter 21 395502 (2009);
         "P. Giannozzi et al., J. Phys.:Condens. Matter 29 465901 (2017);
          URL http://www.quantum-espresso.org", 
     in publications or presentations arising from this work. More details at
     http://www.quantum-espresso.org/quote

     Parallel version (MPI), running on    48 processors

     MPI processes distributed on     2 nodes
     K-points division:     npool     =       2
     R & G space division:  proc/nbgrp/npool/nimage =      24
     Waiting for input...
     Reading input from standard input
Warning: card &CELL ignored
Warning: card CELL_DYNAMICS             = 'BFGS', ignored
Warning: card PRESS                     = '0.0', ignored
Warning: card PRESS_CONV_THR            = '0.5', ignored
Warning: card / ignored
     Message from routine read_cards :
     DEPRECATED: no units specified in CELL_PARAMETERS card

     Current dimensions of program PWSCF are:
     Max number of different atomic species (ntypx) = 10
     Max number of k-points (npk) =  40000
     Max angular momentum in pseudopotentials (lmaxx) =  3
     Message from routine cell_base_init:
     DEPRECATED: use true lattice parameter, not A to a.u. conversion factor
 end of file reached, closing tag not found
     file Er.pbe-spdn-kjpaw_psl.1.0.0.UPF: wavefunction(s)  6S 5D renormalized
     file Br.pbe-dn-kjpaw_psl.1.0.0.UPF: wavefunction(s)  4S 4P 3D renormalized

     Subspace diagonalization in iterative solution of the eigenvalue problem:
     a serial algorithm will be used

     Found symmetry operation: I + ( -0.5000 -0.5000  0.0000)
     This is a supercell, fractional translations are disabled
     Message from routine setup:
     using ibrav=0 with symmetry is DISCOURAGED, use correct ibrav instead
 
     Parallelization info
     --------------------
     sticks:   dense  smooth     PW     G-vecs:    dense   smooth      PW
     Min         395     316     86                20763    14856    2135
     Max         396     317     87                20766    14859    2137
     Sum        9495    7603   2081               498349   356595   51267
 


     bravais-lattice index     =            0
     lattice parameter (alat)  =       1.8897  a.u.
     unit-cell volume          =    3688.3023 (a.u.)^3
     number of atoms/cell      =           20
     number of atomic types    =            3
     number of electrons       =       244.00
     number of Kohn-Sham states=          146
     kinetic-energy cutoff     =      80.0000  Ry
     charge density cutoff     =     400.0000  Ry
     scf convergence threshold =      1.0E-08
     mixing beta               =       0.4000
     number of iterations used =            8  plain     mixing
     Exchange-correlation= SLA  PW   PBX  PBC
                           (   1   4   3   4   0   0   0)

     celldm(1)=   1.889726  celldm(2)=   0.000000  celldm(3)=   0.000000
     celldm(4)=   0.000000  celldm(5)=   0.000000  celldm(6)=   0.000000

     crystal axes: (cart. coord. in units of alat)
               a(1) = (   6.967356   0.000000   0.000000 )  
               a(2) = (   0.000000  11.998880   0.000000 )  
               a(3) = (  -2.324723   0.000000   6.537643 )  

     reciprocal axes: (cart. coord. in units 2 pi/alat)
               b(1) = (  0.143526  0.000000  0.051037 )  
               b(2) = (  0.000000  0.083341  0.000000 )  
               b(3) = (  0.000000  0.000000  0.152960 )  


     PseudoPot. # 1 for Li read from file:
     /central/groups/SeeGroup/qe_pseudopotentials/Li.pbe-s-kjpaw_psl.1.0.0.UPF
     MD5 check sum: cc502796ee09d8b62ac346ee26e59beb
     Pseudo is Projector augmented-wave, Zval =  3.0
     Generated using &quot;atomic&quot; code by A. Dal Corso  v.6.3
     Shape of augmentation charge: PSQ
     Using radial grid of 1017 points,  4 beta functions with: 
                l(1) =   0
                l(2) =   0
                l(3) =   1
                l(4) =   1
     Q(r) pseudized with 0 coefficients 


     PseudoPot. # 2 for Er read from file:
     /central/groups/SeeGroup/qe_pseudopotentials/Er.pbe-spdn-kjpaw_psl.1.0.0.UPF
     MD5 check sum: a923254af2aef992cff3e18bc73f2922
     Pseudo is Projector augmented-wave + core cor, Zval = 11.0
     Generated using &quot;atomic&quot; code by A. Dal Corso  v.6.2.2
     Shape of augmentation charge: PSQ
     Using radial grid of 1267 points,  6 beta functions with: 
                l(1) =   0
                l(2) =   0
                l(3) =   1
                l(4) =   1
                l(5) =   2
                l(6) =   2
     Q(r) pseudized with 0 coefficients 


     PseudoPot. # 3 for Br read from file:
     /central/groups/SeeGroup/qe_pseudopotentials/Br.pbe-dn-kjpaw_psl.1.0.0.UPF
     MD5 check sum: 4ca4ebabfd6065c7bb707b2ebe99e9b3
     Pseudo is Projector augmented-wave + core cor, Zval = 17.0
     Generated using &quot;atomic&quot; code by A. Dal Corso  v.6.3
     Shape of augmentation charge: PSQ
     Using radial grid of 1213 points,  6 beta functions with: 
                l(1) =   0
                l(2) =   0
                l(3) =   1
                l(4) =   1
                l(5) =   2
                l(6) =   2
     Q(r) pseudized with 0 coefficients 


     atomic species   valence    mass     pseudopotential
        Li             3.00     6.94100     Li( 1.00)
        Er            11.00   167.25900     Er( 1.00)
        Br            17.00    79.90400     Br( 1.00)

      2 Sym. Ops. (no inversion) found



   Cartesian axes

     site n.     atom                  positions (alat units)
         1           Li  tau(   1) = (   3.4836780   9.9564306   0.0000000  )
         2           Li  tau(   2) = (   3.4836780   2.0173957   0.0000000  )
         3           Li  tau(   3) = (   2.3213165   7.8846440   3.2688215  )
         4           Li  tau(   4) = (   0.0000000   3.9569906   0.0000000  )
         5           Li  tau(   5) = (   0.0000000   8.0168357   0.0000000  )
         6           Li  tau(   6) = (  -1.1623615   1.8852040   3.2688215  )
         7           Er  tau(   7) = (   3.4836780   5.9699947   0.0000000  )
         8           Er  tau(   8) = (   0.0000000  11.9694347   0.0000000  )
         9           Br  tau(   9) = (   3.4471523   9.9581465   5.0158758  )
        10           Br  tau(  10) = (   3.5847273   1.9854607   4.9258002  )
        11           Br  tau(  11) = (   1.0579057   1.9854607   1.6118428  )
        12           Br  tau(  12) = (   1.1954807   9.9581465   1.5217672  )
        13           Br  tau(  13) = (  -0.0150075   0.0698395   4.9769442  )
        14           Br  tau(  14) = (   4.6576405   0.0698395   1.5606988  )
        15           Br  tau(  15) = (  -0.0365257   3.9587065   5.0158758  )
        16           Br  tau(  16) = (   0.1010493   7.9849007   4.9258002  )
        17           Br  tau(  17) = (   4.5415837   7.9849007   1.6118428  )
        18           Br  tau(  18) = (   4.6791587   3.9587065   1.5217672  )
        19           Br  tau(  19) = (   3.4686705   6.0692795   4.9769442  )
        20           Br  tau(  20) = (   1.1739625   6.0692795   1.5606988  )

     number of k points=    40  Fermi-Dirac smearing, width (Ry)=  0.0070
                       cart. coord. in units 2pi/alat
        k(    1) = (   0.0000000   0.0000000   0.0000000), wk =   0.0185185
        k(    2) = (   0.0000000   0.0000000   0.0254934), wk =   0.0370370
        k(    3) = (   0.0000000   0.0000000   0.0509868), wk =   0.0370370
        k(    4) = (   0.0000000   0.0000000  -0.0764802), wk =   0.0185185
        k(    5) = (   0.0000000   0.0277804   0.0000000), wk =   0.0370370
        k(    6) = (   0.0000000   0.0277804   0.0254934), wk =   0.0740741
        k(    7) = (   0.0000000   0.0277804   0.0509868), wk =   0.0740741
        k(    8) = (   0.0000000   0.0277804  -0.0764802), wk =   0.0370370
        k(    9) = (   0.0239211   0.0000000   0.0085061), wk =   0.0370370
        k(   10) = (   0.0239211   0.0000000   0.0339995), wk =   0.0370370
        k(   11) = (   0.0239211   0.0000000   0.0594929), wk =   0.0370370
        k(   12) = (   0.0239211   0.0000000  -0.0679741), wk =   0.0370370
        k(   13) = (   0.0239211   0.0000000  -0.0424807), wk =   0.0370370
        k(   14) = (   0.0239211   0.0000000  -0.0169873), wk =   0.0370370
        k(   15) = (   0.0239211   0.0277804   0.0085061), wk =   0.0740741
        k(   16) = (   0.0239211   0.0277804   0.0339995), wk =   0.0740741
        k(   17) = (   0.0239211   0.0277804   0.0594929), wk =   0.0740741
        k(   18) = (   0.0239211   0.0277804  -0.0679741), wk =   0.0740741
        k(   19) = (   0.0239211   0.0277804  -0.0424807), wk =   0.0740741
        k(   20) = (   0.0239211   0.0277804  -0.0169873), wk =   0.0740741
        k(   21) = (   0.0478422   0.0000000   0.0170122), wk =   0.0370370
        k(   22) = (   0.0478422   0.0000000   0.0425056), wk =   0.0370370
        k(   23) = (   0.0478422   0.0000000   0.0679990), wk =   0.0370370
        k(   24) = (   0.0478422   0.0000000  -0.0594680), wk =   0.0370370
        k(   25) = (   0.0478422   0.0000000  -0.0339746), wk =   0.0370370
        k(   26) = (   0.0478422   0.0000000  -0.0084812), wk =   0.0370370
        k(   27) = (   0.0478422   0.0277804   0.0170122), wk =   0.0740741
        k(   28) = (   0.0478422   0.0277804   0.0425056), wk =   0.0740741
        k(   29) = (   0.0478422   0.0277804   0.0679990), wk =   0.0740741
        k(   30) = (   0.0478422   0.0277804  -0.0594680), wk =   0.0740741
        k(   31) = (   0.0478422   0.0277804  -0.0339746), wk =   0.0740741
        k(   32) = (   0.0478422   0.0277804  -0.0084812), wk =   0.0740741
        k(   33) = (  -0.0717632   0.0000000  -0.0255183), wk =   0.0185185
        k(   34) = (  -0.0717632   0.0000000  -0.0000249), wk =   0.0370370
        k(   35) = (  -0.0717632   0.0000000   0.0254685), wk =   0.0370370
        k(   36) = (  -0.0717632   0.0000000  -0.1019985), wk =   0.0185185
        k(   37) = (  -0.0717632   0.0277804  -0.0255183), wk =   0.0370370
        k(   38) = (  -0.0717632   0.0277804  -0.0000249), wk =   0.0740741
        k(   39) = (  -0.0717632   0.0277804   0.0254685), wk =   0.0740741
        k(   40) = (  -0.0717632   0.0277804  -0.1019985), wk =   0.0370370

     Dense  grid:   498349 G-vectors     FFT dimensions: (  90, 150,  90)

     Smooth grid:   356595 G-vectors     FFT dimensions: (  75, 135,  75)

     Estimated max dynamical RAM per process >     148.77 MB

     Estimated total dynamical RAM >       6.97 GB

     Initial potential from superposition of free atoms

     starting charge  243.93496, renormalised to  244.00000
     Starting wfcs are  164 randomized atomic wfcs
     Checking if some PAW data can be deallocated... 

     total cpu time spent up to now is        9.1 secs

     Self-consistent Calculation

     iteration #  1     ecut=    80.00 Ry     beta= 0.40
     Davidson diagonalization with overlap
     ethr =  1.00E-02,  avg # of iterations =  5.2

     Threshold (ethr) on eigenvalues was too large:
     Diagonalizing with lowered threshold

     Davidson diagonalization with overlap
     ethr =  1.16E-04,  avg # of iterations =  9.4

     total cpu time spent up to now is       58.6 secs

     total energy              =   -6740.51665906 Ry
     estimated scf accuracy    <       0.28201858 Ry

     iteration #  2     ecut=    80.00 Ry     beta= 0.40
     Davidson diagonalization with overlap
     ethr =  1.16E-04,  avg # of iterations =  2.0

     total cpu time spent up to now is       76.5 secs

     total energy              =   -6740.54254572 Ry
     estimated scf accuracy    <       0.03907597 Ry

     iteration #  3     ecut=    80.00 Ry     beta= 0.40
     Davidson diagonalization with overlap
     ethr =  1.60E-05,  avg # of iterations =  8.1

     total cpu time spent up to now is      104.0 secs

     total energy              =   -6740.54760878 Ry
     estimated scf accuracy    <       0.00547555 Ry

     iteration #  4     ecut=    80.00 Ry     beta= 0.40
     Davidson diagonalization with overlap
     c_bands:  1 eigenvalues not converged
     ethr =  2.24E-06,  avg # of iterations =  9.3

     total cpu time spent up to now is      131.5 secs

     total energy              =   -6740.54827833 Ry
     estimated scf accuracy    <       0.00075357 Ry

     iteration #  5     ecut=    80.00 Ry     beta= 0.40
     Davidson diagonalization with overlap
     ethr =  3.09E-07,  avg # of iterations =  2.0

     total cpu time spent up to now is      148.9 secs

     total energy              =   -6740.54840596 Ry
     estimated scf accuracy    <       0.00016637 Ry

     iteration #  6     ecut=    80.00 Ry     beta= 0.40
     Davidson diagonalization with overlap
     ethr =  6.82E-08,  avg # of iterations =  2.0

     total cpu time spent up to now is      166.1 secs

     total energy              =   -6740.54842229 Ry
     estimated scf accuracy    <       0.00003252 Ry

     iteration #  7     ecut=    80.00 Ry     beta= 0.40
     Davidson diagonalization with overlap
     ethr =  1.33E-08,  avg # of iterations =  2.0

     total cpu time spent up to now is      183.4 secs

     total energy              =   -6740.54842387 Ry
     estimated scf accuracy    <       0.00000101 Ry

     iteration #  8     ecut=    80.00 Ry     beta= 0.40
     Davidson diagonalization with overlap
     ethr =  4.13E-10,  avg # of iterations =  2.0

     total cpu time spent up to now is      202.4 secs

     total energy              =   -6740.54842399 Ry
     estimated scf accuracy    <       0.00000011 Ry

     iteration #  9     ecut=    80.00 Ry     beta= 0.40
     Davidson diagonalization with overlap
     ethr =  4.55E-11,  avg # of iterations =  2.0

     total cpu time spent up to now is      219.9 secs

     End of self-consistent calculation

          k = 0.0000 0.0000 0.0000 ( 44625 PWs)   bands (ev):

   -56.2781 -56.2780 -56.2780 -56.2780 -56.2752 -56.2751 -56.2751 -56.2751
   -56.2604 -56.2604 -56.2603 -56.2603 -56.2552 -56.2551 -56.2551 -56.2551
   -56.2528 -56.2528 -56.2528 -56.2527 -56.2393 -56.2393 -56.2393 -56.2393
   -56.2272 -56.2272 -56.2272 -56.2272 -56.2236 -56.2236 -56.2236 -56.2235
   -56.2125 -56.2125 -56.2124 -56.2124 -56.2096 -56.2095 -56.2095 -56.2095
   -56.1943 -56.1943 -56.1943 -56.1943 -56.1933 -56.1933 -56.1933 -56.1933
   -56.1924 -56.1924 -56.1923 -56.1923 -56.1863 -56.1862 -56.1862 -56.1862
   -56.1833 -56.1833 -56.1833 -56.1833 -46.9314 -46.9314 -42.0575 -42.0575
   -41.7891 -41.7891 -41.7606 -41.7606 -20.7595 -20.7595 -20.7542 -20.7541
   -20.7541 -20.7539 -10.7218 -10.5408 -10.3947 -10.2883 -10.2785 -10.2692
   -10.2366 -10.2319 -10.2244 -10.1600 -10.1546 -10.1288  -0.1679  -0.1589
     0.2184   0.2446   0.2635   0.4077   0.4553   0.6223   0.6727   0.7415
     0.8625   0.8627   0.8732   0.9984   1.1254   1.2413   1.2643   1.2679
     1.2731   1.4829   1.5254   1.6952   1.7403   1.9382   1.9806   2.0170
     2.0554   2.0731   2.1872   2.2406   2.3323   2.4623   2.5281   2.5283
     2.5731   2.5793   7.0476   7.3039   7.4454   7.4663   7.4672   7.5188
     7.5481   8.7251   8.7445   8.8090   9.1082   9.1643   9.3655   9.3992
     9.4783   9.7253   9.9188  10.3126  10.3258  10.3776  10.6747  10.8622
    10.9495  11.1012

          k = 0.0000 0.0000 0.0255 ( 44571 PWs)   bands (ev):

   -56.2781 -56.2780 -56.2780 -56.2780 -56.2751 -56.2751 -56.2751 -56.2751
   -56.2604 -56.2604 -56.2603 -56.2603 -56.2552 -56.2551 -56.2551 -56.2551
   -56.2528 -56.2527 -56.2527 -56.2527 -56.2393 -56.2393 -56.2393 -56.2393
   -56.2272 -56.2272 -56.2272 -56.2272 -56.2236 -56.2235 -56.2235 -56.2235
   -56.2125 -56.2124 -56.2124 -56.2124 -56.2096 -56.2095 -56.2095 -56.2095
   -56.1943 -56.1943 -56.1943 -56.1943 -56.1933 -56.1933 -56.1933 -56.1933
   -56.1924 -56.1923 -56.1923 -56.1923 -56.1863 -56.1862 -56.1862 -56.1862
   -56.1833 -56.1833 -56.1833 -56.1832 -46.9314 -46.9314 -42.0575 -42.0575
   -41.7891 -41.7890 -41.7606 -41.7606 -20.7595 -20.7595 -20.7542 -20.7541
   -20.7541 -20.7539 -10.7002 -10.5244 -10.3858 -10.2908 -10.2851 -10.2829
   -10.2459 -10.2408 -10.2189 -10.1674 -10.1637 -10.1305  -0.1175  -0.0748
     0.2595   0.2612   0.2965   0.3645   0.4584   0.4957   0.6998   0.8114
     0.8399   0.8927   0.9845   1.0494   1.0851   1.1034   1.2412   1.3601
     1.3636   1.4452   1.4762   1.6699   1.7475   1.9590   1.9971   2.0229
     2.0407   2.1034   2.1736   2.2198   2.3084   2.3516   2.3614   2.5111
     2.5220   2.5227   7.1104   7.2922   7.3740   7.4297   7.4881   7.5358
     7.7805   8.7653   8.7924   8.9587   9.0895   9.1762   9.3146   9.3645
     9.6409   9.9868  10.0209  10.1202  10.3624  10.6096  10.6578  10.7339
    10.9827  11.1731

          k = 0.0000 0.0000 0.0510 ( 44583 PWs)   bands (ev):

   -56.2781 -56.2780 -56.2780 -56.2780 -56.2751 -56.2751 -56.2751 -56.2751
   -56.2604 -56.2604 -56.2603 -56.2603 -56.2552 -56.2551 -56.2551 -56.2551
   -56.2528 -56.2528 -56.2527 -56.2527 -56.2393 -56.2393 -56.2393 -56.2393
   -56.2272 -56.2272 -56.2272 -56.2272 -56.2236 -56.2235 -56.2235 -56.2235
   -56.2125 -56.2125 -56.2124 -56.2124 -56.2096 -56.2095 -56.2095 -56.2095
   -56.1943 -56.1943 -56.1943 -56.1943 -56.1933 -56.1933 -56.1933 -56.1933
   -56.1924 -56.1924 -56.1923 -56.1923 -56.1862 -56.1862 -56.1862 -56.1862
   -56.1833 -56.1833 -56.1833 -56.1833 -46.9314 -46.9314 -42.0575 -42.0575
   -41.7891 -41.7890 -41.7606 -41.7606 -20.7595 -20.7595 -20.7542 -20.7541
   -20.7541 -20.7539 -10.6470 -10.4846 -10.3629 -10.3408 -10.3026 -10.2864
   -10.2654 -10.2402 -10.2351 -10.1821 -10.1660 -10.1365  -0.0262   0.1036
     0.2252   0.2894   0.3603   0.4356   0.4799   0.5438   0.6887   0.7728
     0.8403   0.8936   0.9472   1.0694   1.0993   1.2139   1.3205   1.3489
     1.3978   1.4131   1.5331   1.5626   1.7648   1.8168   1.8970   1.9833
     2.0638   2.0654   2.0858   2.1323   2.1831   2.2708   2.3252   2.3838
     2.4759   2.4830   7.2187   7.2408   7.2561   7.3430   7.4919   7.5612
     8.3813   8.7130   8.9066   9.0063   9.1178   9.3895   9.5537   9.7079
     9.8259   9.9449  10.1200  10.2560  10.3988  10.6600  10.7207  10.8589
    10.8894  11.0159

          k = 0.0000 0.0000-0.0765 ( 44536 PWs)   bands (ev):

   -56.2780 -56.2780 -56.2780 -56.2780 -56.2751 -56.2751 -56.2751 -56.2751
   -56.2604 -56.2603 -56.2603 -56.2603 -56.2552 -56.2551 -56.2551 -56.2550
   -56.2528 -56.2528 -56.2527 -56.2527 -56.2393 -56.2393 -56.2393 -56.2392
   -56.2272 -56.2272 -56.2272 -56.2272 -56.2236 -56.2235 -56.2235 -56.2235
   -56.2125 -56.2125 -56.2124 -56.2124 -56.2095 -56.2095 -56.2095 -56.2095
   -56.1943 -56.1943 -56.1943 -56.1943 -56.1933 -56.1933 -56.1933 -56.1933
   -56.1924 -56.1923 -56.1923 -56.1923 -56.1862 -56.1862 -56.1862 -56.1862
   -56.1833 -56.1833 -56.1832 -56.1832 -46.9314 -46.9314 -42.0575 -42.0575
   -41.7891 -41.7890 -41.7606 -41.7606 -20.7596 -20.7595 -20.7542 -20.7541
   -20.7541 -20.7539 -10.6105 -10.4579 -10.3798 -10.3445 -10.3195 -10.2848
   -10.2726 -10.2578 -10.2407 -10.1828 -10.1631 -10.1420   0.0252   0.1837
     0.1914   0.2492   0.3944   0.4984   0.5830   0.6740   0.6860   0.7350
     0.7829   0.9494   0.9907   1.0450   1.0951   1.2087   1.2709   1.3604
     1.3885   1.4544   1.4664   1.5324   1.6691   1.7955   1.8870   1.8998
     1.9538   2.0698   2.1219   2.1332   2.1441   2.2877   2.2986   2.3348
     2.4569   2.4598   7.1910   7.2157   7.2506   7.3273   7.4875   7.5781
     8.6405   8.7943   8.9087   9.0796   9.1938   9.4471   9.8912   9.9510
     9.9597  10.0393  10.0425  10.1882  10.2517  10.3073  10.7765  10.8108
    10.9775  10.9882

          k = 0.0000 0.0278 0.0000 ( 44566 PWs)   bands (ev):

   -56.2781 -56.2780 -56.2780 -56.2780 -56.2751 -56.2751 -56.2751 -56.2751
   -56.2604 -56.2604 -56.2603 -56.2603 -56.2552 -56.2551 -56.2551 -56.2551
   -56.2528 -56.2528 -56.2527 -56.2527 -56.2393 -56.2393 -56.2393 -56.2393
   -56.2272 -56.2272 -56.2272 -56.2272 -56.2236 -56.2236 -56.2235 -56.2235
   -56.2125 -56.2124 -56.2124 -56.2124 -56.2095 -56.2095 -56.2095 -56.2095
   -56.1943 -56.1943 -56.1943 -56.1943 -56.1933 -56.1933 -56.1933 -56.1933
   -56.1924 -56.1923 -56.1923 -56.1923 -56.1862 -56.1862 -56.1862 -56.1862
   -56.1833 -56.1833 -56.1833 -56.1833 -46.9314 -46.9314 -42.0575 -42.0575
   -41.7891 -41.7890 -41.7606 -41.7606 -20.7595 -20.7595 -20.7541 -20.7541
   -20.7541 -20.7539 -10.6902 -10.6083 -10.3438 -10.3005 -10.2880 -10.2851
   -10.2084 -10.2073 -10.2026 -10.1733 -10.1690 -10.1534  -0.1382  -0.1323
     0.1261   0.1417   0.2998   0.3753   0.4827   0.5828   0.6667   0.7635
     0.7868   0.8439   1.0675   1.0959   1.1229   1.1393   1.2201   1.2798
     1.4772   1.5601   1.6791   1.6885   1.7427   1.8858   1.8980   1.9010
     2.0067   2.2016   2.2711   2.2956   2.2990   2.3072   2.4112   2.4749
     2.5375   2.5648   7.1697   7.3329   7.4625   7.4627   7.4653   7.4992
     7.7844   8.4500   8.8144   8.8998   9.0469   9.1359   9.3414   9.4015
     9.4648   9.7376  10.0934  10.1704  10.1949  10.3110  10.7557  10.8539
    11.1234  11.1317

          k = 0.0000 0.0278 0.0255 ( 44593 PWs)   bands (ev):

   -56.2781 -56.2781 -56.2780 -56.2780 -56.2751 -56.2751 -56.2751 -56.2751
   -56.2604 -56.2604 -56.2603 -56.2603 -56.2552 -56.2551 -56.2551 -56.2551
   -56.2528 -56.2528 -56.2527 -56.2527 -56.2393 -56.2393 -56.2393 -56.2393
   -56.2272 -56.2272 -56.2272 -56.2272 -56.2236 -56.2236 -56.2235 -56.2235
   -56.2125 -56.2125 -56.2124 -56.2124 -56.2095 -56.2095 -56.2095 -56.2095
   -56.1943 -56.1943 -56.1943 -56.1943 -56.1933 -56.1933 -56.1933 -56.1933
   -56.1924 -56.1924 -56.1923 -56.1923 -56.1862 -56.1862 -56.1862 -56.1862
   -56.1833 -56.1833 -56.1833 -56.1833 -46.9314 -46.9314 -42.0575 -42.0575
   -41.7891 -41.7891 -41.7606 -41.7606 -20.7595 -20.7595 -20.7541 -20.7541
   -20.7541 -20.7539 -10.6695 -10.5898 -10.3408 -10.3061 -10.2907 -10.2885
   -10.2280 -10.2162 -10.1924 -10.1825 -10.1811 -10.1506  -0.0921  -0.0711
     0.1872   0.1917   0.3274   0.3620   0.4807   0.5061   0.6128   0.6924
     0.8340   0.9700   1.0127   1.0927   1.1274   1.1916   1.2299   1.4276
     1.4695   1.5988   1.6026   1.6560   1.7125   1.8573   1.8987   1.9249
     2.0132   2.1185   2.1959   2.2259   2.3008   2.3129   2.3473   2.4516
     2.4766   2.4881   7.2291   7.3369   7.3784   7.4351   7.4483   7.4957
     8.0209   8.5571   8.8468   8.8807   9.1822   9.2384   9.4004   9.4559
     9.6177   9.8944   9.9607  10.0532  10.3894  10.5762  10.6524  10.6702
    10.9630  11.0876

          k = 0.0000 0.0278 0.0510 ( 44549 PWs)   bands (ev):

   -56.2781 -56.2780 -56.2780 -56.2780 -56.2751 -56.2751 -56.2751 -56.2751
   -56.2604 -56.2603 -56.2603 -56.2603 -56.2552 -56.2551 -56.2551 -56.2551
   -56.2528 -56.2528 -56.2527 -56.2527 -56.2393 -56.2393 -56.2393 -56.2393
   -56.2272 -56.2272 -56.2272 -56.2272 -56.2236 -56.2236 -56.2235 -56.2235
   -56.2125 -56.2125 -56.2124 -56.2124 -56.2095 -56.2095 -56.2095 -56.2095
   -56.1943 -56.1943 -56.1943 -56.1943 -56.1933 -56.1933 -56.1933 -56.1933
   -56.1924 -56.1924 -56.1923 -56.1923 -56.1862 -56.1862 -56.1862 -56.1862
   -56.1833 -56.1833 -56.1832 -56.1832 -46.9314 -46.9314 -42.0575 -42.0575
   -41.7891 -41.7890 -41.7606 -41.7606 -20.7595 -20.7595 -20.7541 -20.7541
   -20.7541 -20.7539 -10.6181 -10.5440 -10.3417 -10.3409 -10.3055 -10.2941
   -10.2395 -10.2270 -10.2129 -10.1858 -10.1851 -10.1548  -0.0072   0.0443
     0.2384   0.2751   0.3501   0.4025   0.5082   0.5180   0.6455   0.6518
     0.9106   0.9693   0.9980   1.0705   1.1569   1.2663   1.2957   1.4164
     1.4387   1.5521   1.5711   1.6486   1.7314   1.7609   1.8556   1.9196
     1.9415   2.0539   2.0816   2.1646   2.1815   2.2849   2.2985   2.3430
     2.3785   2.4628   7.2861   7.2868   7.3332   7.3649   7.4331   7.5096
     8.4732   8.6246   8.9330   9.0533   9.3122   9.4623   9.5317   9.7939
     9.8910   9.9565  10.1145  10.1375  10.3589  10.5061  10.5209  10.6526
    10.8900  11.0872

          k = 0.0000 0.0278-0.0765 ( 44532 PWs)   bands (ev):

   -56.2780 -56.2780 -56.2780 -56.2780 -56.2751 -56.2751 -56.2751 -56.2751
   -56.2603 -56.2603 -56.2603 -56.2603 -56.2552 -56.2551 -56.2551 -56.2551
   -56.2528 -56.2528 -56.2527 -56.2527 -56.2393 -56.2393 -56.2393 -56.2392
   -56.2272 -56.2272 -56.2272 -56.2272 -56.2236 -56.2235 -56.2235 -56.2235
   -56.2125 -56.2124 -56.2124 -56.2124 -56.2095 -56.2095 -56.2095 -56.2095
   -56.1943 -56.1943 -56.1943 -56.1943 -56.1933 -56.1933 -56.1933 -56.1933
   -56.1924 -56.1924 -56.1923 -56.1923 -56.1862 -56.1862 -56.1862 -56.1862
   -56.1833 -56.1833 -56.1832 -56.1832 -46.9314 -46.9314 -42.0575 -42.0575
   -41.7891 -41.7890 -41.7606 -41.7606 -20.7596 -20.7595 -20.7542 -20.7541
   -20.7541 -20.7539 -10.5826 -10.5117 -10.3753 -10.3593 -10.3078 -10.2923
   -10.2397 -10.2342 -10.2272 -10.1859 -10.1745 -10.1656   0.0362   0.0929
     0.2206   0.2533   0.3553   0.4255   0.5903   0.6398   0.7300   0.7366
     0.9424   0.9426   1.0088   1.0511   1.0727   1.2031   1.2963   1.3826
     1.4104   1.4661   1.5962   1.6039   1.6716   1.7828   1.9100   1.9187
     1.9304   1.9488   2.0479   2.1506   2.1917   2.2280   2.2425   2.3467
     2.3545   2.4340   7.2616   7.2688   7.2874   7.3926   7.4170   7.5334
     8.5986   8.6381   9.0685   9.2336   9.4450   9.5023   9.6870   9.9264
     9.9881   9.9963  10.0333  10.2050  10.3756  10.3868  10.5838  10.7997
    10.9996  11.1032

          k = 0.0239 0.0000 0.0085 ( 44593 PWs)   bands (ev):

   -56.2781 -56.2780 -56.2780 -56.2780 -56.2751 -56.2751 -56.2751 -56.2751
   -56.2604 -56.2603 -56.2603 -56.2603 -56.2552 -56.2551 -56.2551 -56.2551
   -56.2528 -56.2528 -56.2527 -56.2527 -56.2393 -56.2393 -56.2393 -56.2393
   -56.2272 -56.2272 -56.2272 -56.2272 -56.2236 -56.2236 -56.2235 -56.2235
   -56.2125 -56.2125 -56.2124 -56.2124 -56.2095 -56.2095 -56.2095 -56.2095
   -56.1943 -56.1943 -56.1943 -56.1943 -56.1933 -56.1933 -56.1933 -56.1933
   -56.1924 -56.1924 -56.1923 -56.1923 -56.1862 -56.1862 -56.1862 -56.1862
   -56.1833 -56.1833 -56.1833 -56.1832 -46.9314 -46.9314 -42.0575 -42.0575
   -41.7891 -41.7891 -41.7606 -41.7606 -20.7595 -20.7595 -20.7542 -20.7541
   -20.7541 -20.7539 -10.6963 -10.5231 -10.3862 -10.3042 -10.2936 -10.2693
   -10.2394 -10.2355 -10.2246 -10.1767 -10.1534 -10.1341  -0.1308  -0.0562
     0.2488   0.2515   0.3403   0.3553   0.4514   0.5585   0.7192   0.7302
     0.8592   0.9043   0.9488   0.9511   1.0358   1.0611   1.2968   1.3458
     1.4056   1.4827   1.6245   1.6934   1.7651   1.9125   1.9288   2.0159
     2.0267   2.1179   2.1276   2.2757   2.2763   2.3352   2.3630   2.5024
     2.5343   2.5471   7.1075   7.3652   7.3847   7.4252   7.4439   7.4874
     7.7832   8.8041   8.8141   8.8963   9.0682   9.1331   9.3189   9.4821
     9.6218   9.8924  10.0828  10.0892  10.3646  10.5916  10.6113  10.7670
    11.0348  11.1453

          k = 0.0239 0.0000 0.0340 ( 44593 PWs)   bands (ev):

   -56.2781 -56.2780 -56.2780 -56.2780 -56.2751 -56.2751 -56.2751 -56.2751
   -56.2604 -56.2603 -56.2603 -56.2603 -56.2552 -56.2551 -56.2551 -56.2551
   -56.2528 -56.2528 -56.2528 -56.2527 -56.2393 -56.2393 -56.2393 -56.2393
   -56.2272 -56.2272 -56.2272 -56.2272 -56.2236 -56.2236 -56.2235 -56.2235
   -56.2125 -56.2125 -56.2124 -56.2124 -56.2095 -56.2095 -56.2095 -56.2095
   -56.1943 -56.1943 -56.1943 -56.1943 -56.1933 -56.1933 -56.1933 -56.1933
   -56.1924 -56.1924 -56.1923 -56.1923 -56.1862 -56.1862 -56.1862 -56.1862
   -56.1833 -56.1833 -56.1833 -56.1833 -46.9314 -46.9314 -42.0575 -42.0575
   -41.7891 -41.7891 -41.7606 -41.7606 -20.7595 -20.7595 -20.7542 -20.7541
   -20.7541 -20.7539 -10.6636 -10.5000 -10.3750 -10.3204 -10.3044 -10.2763
   -10.2514 -10.2447 -10.2266 -10.1882 -10.1634 -10.1315   0.0243   0.0333
     0.2687   0.2901   0.3623   0.4027   0.4979   0.5178   0.7803   0.7836
     0.8380   0.8859   0.9780   1.0319   1.0643   1.1044   1.2147   1.2728
     1.3418   1.3665   1.6047   1.6350   1.8132   1.8143   1.9481   2.0084
     2.0508   2.1181   2.1418   2.1784   2.2433   2.2445   2.2535   2.3868
     2.4310   2.5073   7.2068   7.3116   7.3656   7.3857   7.4895   7.5160
     8.1731   8.7465   8.8661   8.9047   9.0138   9.2351   9.5216   9.5647
     9.9788  10.0226  10.0751  10.3001  10.4631  10.7345  10.8195  10.8940
    11.1234  11.1502

          k = 0.0239 0.0000 0.0595 ( 44524 PWs)   bands (ev):

   -56.2781 -56.2780 -56.2780 -56.2780 -56.2751 -56.2751 -56.2751 -56.2751
   -56.2603 -56.2603 -56.2603 -56.2603 -56.2552 -56.2551 -56.2551 -56.2550
   -56.2528 -56.2528 -56.2527 -56.2527 -56.2393 -56.2393 -56.2393 -56.2393
   -56.2272 -56.2272 -56.2272 -56.2272 -56.2236 -56.2235 -56.2235 -56.2235
   -56.2125 -56.2125 -56.2124 -56.2124 -56.2095 -56.2095 -56.2095 -56.2095
   -56.1943 -56.1943 -56.1943 -56.1943 -56.1933 -56.1933 -56.1933 -56.1933
   -56.1924 -56.1924 -56.1923 -56.1923 -56.1862 -56.1862 -56.1862 -56.1862
   -56.1833 -56.1833 -56.1832 -56.1832 -46.9314 -46.9314 -42.0575 -42.0575
   -41.7891 -41.7890 -41.7606 -41.7606 -20.7595 -20.7595 -20.7542 -20.7541
   -20.7541 -20.7539 -10.6091 -10.4598 -10.3560 -10.3558 -10.3240 -10.2792
   -10.2727 -10.2553 -10.2531 -10.1827 -10.1688 -10.1398   0.0604   0.1514
     0.1996   0.2633   0.4454   0.4763   0.5883   0.6088   0.6446   0.7381
     0.7934   0.8637   1.0030   1.0948   1.1020   1.2254   1.2678   1.2924
     1.3475   1.3901   1.5770   1.5800   1.7222   1.8711   1.9479   1.9577
     1.9708   2.0443   2.0583   2.1203   2.1596   2.2639   2.2817   2.3242
     2.3509   2.4893   7.1907   7.2417   7.3030   7.3393   7.4856   7.5332
     8.6313   8.6980   8.9824   9.0187   9.0676   9.6370   9.6651   9.7162
     9.7899  10.0304  10.1182  10.2543  10.2864  10.4391  10.6204  10.7955
    11.1557  11.1919

          k = 0.0239 0.0000-0.0680 ( 44537 PWs)   bands (ev):

   -56.2780 -56.2780 -56.2780 -56.2780 -56.2751 -56.2751 -56.2751 -56.2751
   -56.2603 -56.2603 -56.2603 -56.2603 -56.2552 -56.2552 -56.2551 -56.2551
   -56.2528 -56.2528 -56.2527 -56.2527 -56.2393 -56.2393 -56.2393 -56.2393
   -56.2272 -56.2272 -56.2272 -56.2272 -56.2236 -56.2236 -56.2235 -56.2235
   -56.2125 -56.2124 -56.2124 -56.2124 -56.2095 -56.2095 -56.2095 -56.2095
   -56.1943 -56.1943 -56.1943 -56.1943 -56.1933 -56.1933 -56.1933 -56.1933
   -56.1924 -56.1924 -56.1923 -56.1923 -56.1862 -56.1862 -56.1862 -56.1862
   -56.1833 -56.1833 -56.1832 -56.1832 -46.9314 -46.9314 -42.0575 -42.0575
   -41.7891 -41.7890 -41.7606 -41.7606 -20.7596 -20.7595 -20.7542 -20.7542
   -20.7541 -20.7539 -10.5938 -10.4454 -10.3730 -10.3464 -10.3155 -10.2936
   -10.2879 -10.2599 -10.2455 -10.1743 -10.1693 -10.1534   0.0153   0.0561
     0.2074   0.2491   0.4077   0.4363   0.5144   0.6396   0.6706   0.7003
     0.7330   0.8486   1.0472   1.1092   1.1246   1.2065   1.3762   1.3857
     1.4497   1.5401   1.5938   1.6338   1.7281   1.8497   1.8903   1.9270
     1.9576   1.9930   2.0672   2.1169   2.2256   2.2413   2.3059   2.3676
     2.3767   2.4673   7.1484   7.2217   7.2505   7.3072   7.4358   7.5204
     8.6758   8.7166   9.0321   9.1422   9.1529   9.4712   9.5447   9.7326
     9.8045   9.8792   9.9613  10.0649  10.1245  10.2890  10.4815  10.5256
    11.0870  11.0879

          k = 0.0239 0.0000-0.0425 ( 44554 PWs)   bands (ev):

   -56.2781 -56.2780 -56.2780 -56.2780 -56.2751 -56.2751 -56.2751 -56.2751
   -56.2603 -56.2603 -56.2603 -56.2603 -56.2552 -56.2551 -56.2551 -56.2551
   -56.2528 -56.2528 -56.2527 -56.2527 -56.2393 -56.2393 -56.2393 -56.2392
   -56.2272 -56.2272 -56.2272 -56.2272 -56.2236 -56.2236 -56.2235 -56.2235
   -56.2125 -56.2124 -56.2124 -56.2124 -56.2095 -56.2095 -56.2095 -56.2095
   -56.1943 -56.1943 -56.1943 -56.1943 -56.1933 -56.1933 -56.1933 -56.1933
   -56.1924 -56.1924 -56.1923 -56.1923 -56.1862 -56.1862 -56.1862 -56.1862
   -56.1833 -56.1833 -56.1832 -56.1832 -46.9314 -46.9314 -42.0575 -42.0575
   -41.7891 -41.7890 -41.7606 -41.7606 -20.7595 -20.7595 -20.7542 -20.7541
   -20.7541 -20.7539 -10.6429 -10.4806 -10.3602 -10.3292 -10.2987 -10.2855
   -10.2816 -10.2380 -10.2364 -10.1746 -10.1704 -10.1508  -0.0494  -0.0483
     0.2187   0.2488   0.3206   0.3613   0.4265   0.4585   0.6198   0.6856
     0.7697   0.8166   1.0512   1.1274   1.1526   1.3279   1.3311   1.4705
     1.5344   1.6130   1.6256   1.7137   1.7965   1.8217   1.8487   1.9269
     1.9765   2.0862   2.0872   2.1696   2.2924   2.3204   2.3378   2.4218
     2.4709   2.4767   7.1516   7.2201   7.2450   7.3205   7.4114   7.4838
     8.2369   8.8242   8.8691   8.9792   9.1914   9.3336   9.3799   9.6362
     9.7090   9.7202   9.8203  10.0257  10.1404  10.2974  10.3458  10.4076
    10.8571  11.1247

          k = 0.0239 0.0000-0.0170 ( 44575 PWs)   bands (ev):

   -56.2781 -56.2780 -56.2780 -56.2780 -56.2751 -56.2751 -56.2751 -56.2751
   -56.2604 -56.2603 -56.2603 -56.2603 -56.2552 -56.2551 -56.2551 -56.2551
   -56.2528 -56.2528 -56.2527 -56.2527 -56.2393 -56.2393 -56.2393 -56.2393
   -56.2272 -56.2272 -56.2272 -56.2272 -56.2236 -56.2235 -56.2235 -56.2235
   -56.2125 -56.2125 -56.2124 -56.2124 -56.2096 -56.2095 -56.2095 -56.2095
   -56.1943 -56.1943 -56.1943 -56.1943 -56.1933 -56.1933 -56.1933 -56.1933
   -56.1924 -56.1923 -56.1923 -56.1923 -56.1862 -56.1862 -56.1862 -56.1862
   -56.1833 -56.1833 -56.1833 -56.1832 -46.9314 -46.9314 -42.0575 -42.0575
   -41.7891 -41.7890 -41.7606 -41.7606 -20.7595 -20.7595 -20.7542 -20.7541
   -20.7541 -20.7539 -10.6880 -10.5153 -10.3803 -10.3053 -10.2898 -10.2635
   -10.2572 -10.2409 -10.2268 -10.1694 -10.1585 -10.1429  -0.1403  -0.0864
     0.2099   0.2354   0.2915   0.3135   0.4354   0.4779   0.6330   0.7357
     0.8475   0.8510   0.9563   0.9984   1.1718   1.2184   1.2394   1.4150
     1.5302   1.5490   1.6353   1.7303   1.7923   1.8773   1.9064   1.9862
     2.0390   2.1165   2.1545   2.2454   2.3068   2.3364   2.4337   2.4678
     2.5211   2.5600   7.0757   7.2960   7.3278   7.3973   7.4256   7.4727
     7.8017   8.6938   8.8722   9.0157   9.1217   9.2520   9.4099   9.4743
     9.5084   9.6524   9.8356  10.0413  10.0546  10.3850  10.4774  10.5090
    11.0150  11.1271

          k = 0.0239 0.0278 0.0085 ( 44595 PWs)   bands (ev):

   -56.2781 -56.2780 -56.2780 -56.2780 -56.2751 -56.2751 -56.2751 -56.2751
   -56.2604 -56.2604 -56.2603 -56.2603 -56.2552 -56.2551 -56.2551 -56.2551
   -56.2528 -56.2528 -56.2528 -56.2527 -56.2393 -56.2393 -56.2393 -56.2393
   -56.2272 -56.2272 -56.2272 -56.2272 -56.2236 -56.2236 -56.2235 -56.2235
   -56.2125 -56.2125 -56.2124 -56.2124 -56.2096 -56.2095 -56.2095 -56.2095
   -56.1943 -56.1943 -56.1943 -56.1943 -56.1933 -56.1933 -56.1933 -56.1933
   -56.1924 -56.1924 -56.1923 -56.1923 -56.1862 -56.1862 -56.1862 -56.1862
   -56.1833 -56.1833 -56.1833 -56.1833 -46.9314 -46.9314 -42.0575 -42.0575
   -41.7891 -41.7891 -41.7606 -41.7606 -20.7595 -20.7595 -20.7542 -20.7541
   -20.7541 -20.7539 -10.6662 -10.5880 -10.3363 -10.3033 -10.2999 -10.2916
   -10.2336 -10.2102 -10.1958 -10.1954 -10.1656 -10.1505  -0.0998  -0.0545
     0.1903   0.1924   0.3259   0.3264   0.5199   0.5444   0.6202   0.6251
     0.8421   0.9371   1.0244   1.0343   1.1709   1.2474   1.2919   1.3823
     1.4048   1.5355   1.6629   1.6683   1.7331   1.8504   1.8567   1.9974
     2.0158   2.0865   2.1937   2.2022   2.2871   2.3231   2.3716   2.4416
     2.4684   2.5151   7.2251   7.3748   7.4060   7.4273   7.4305   7.4620
     8.0062   8.5322   8.8595   8.9665   9.1139   9.1341   9.3822   9.5294
     9.5915   9.9073  10.0393  10.1818  10.2451  10.5057  10.6017  10.6986
    11.0450  11.1243

          k = 0.0239 0.0278 0.0340 ( 44570 PWs)   bands (ev):

   -56.2781 -56.2780 -56.2780 -56.2780 -56.2751 -56.2751 -56.2751 -56.2751
   -56.2604 -56.2604 -56.2603 -56.2603 -56.2552 -56.2551 -56.2551 -56.2551
   -56.2528 -56.2528 -56.2527 -56.2527 -56.2393 -56.2393 -56.2393 -56.2393
   -56.2272 -56.2272 -56.2272 -56.2272 -56.2236 -56.2236 -56.2235 -56.2235
   -56.2125 -56.2125 -56.2124 -56.2124 -56.2096 -56.2095 -56.2095 -56.2095
   -56.1943 -56.1943 -56.1943 -56.1943 -56.1933 -56.1933 -56.1933 -56.1933
   -56.1924 -56.1924 -56.1923 -56.1923 -56.1862 -56.1862 -56.1862 -56.1862
   -56.1833 -56.1833 -56.1833 -56.1832 -46.9314 -46.9314 -42.0575 -42.0575
   -41.7891 -41.7890 -41.7606 -41.7606 -20.7595 -20.7595 -20.7542 -20.7541
   -20.7541 -20.7539 -10.6352 -10.5615 -10.3341 -10.3097 -10.3067 -10.2940
   -10.2556 -10.2252 -10.2117 -10.2026 -10.1659 -10.1433   0.0271   0.0272
     0.2517   0.2675   0.3570   0.3697   0.5122   0.5411   0.6218   0.6913
     0.8435   0.8809   1.0784   1.0853   1.1025   1.2408   1.3227   1.3585
     1.4245   1.5200   1.5283   1.6317   1.7264   1.8193   1.8272   1.9546
     2.0374   2.0520   2.1128   2.1749   2.2525   2.2852   2.2882   2.3647
     2.3817   2.4123   7.3113   7.3417   7.3762   7.4147   7.4549   7.4825
     8.2875   8.5559   8.9848   9.0133   9.1137   9.4153   9.5073   9.6221
     9.8351   9.9797  10.0993  10.3434  10.4144  10.5581  10.6815  10.7249
    11.0316  11.0831

          k = 0.0239 0.0278 0.0595 ( 44547 PWs)   bands (ev):

   -56.2781 -56.2780 -56.2780 -56.2780 -56.2751 -56.2751 -56.2751 -56.2751
   -56.2604 -56.2603 -56.2603 -56.2603 -56.2552 -56.2551 -56.2551 -56.2550
   -56.2528 -56.2528 -56.2527 -56.2527 -56.2393 -56.2393 -56.2393 -56.2393
   -56.2272 -56.2272 -56.2272 -56.2272 -56.2236 -56.2235 -56.2235 -56.2235
   -56.2125 -56.2125 -56.2124 -56.2124 -56.2095 -56.2095 -56.2095 -56.2095
   -56.1943 -56.1943 -56.1943 -56.1943 -56.1933 -56.1933 -56.1933 -56.1933
   -56.1924 -56.1924 -56.1923 -56.1923 -56.1862 -56.1862 -56.1862 -56.1862
   -56.1833 -56.1833 -56.1832 -56.1832 -46.9314 -46.9314 -42.0575 -42.0575
   -41.7891 -41.7890 -41.7606 -41.7606 -20.7595 -20.7595 -20.7542 -20.7542
   -20.7541 -20.7539 -10.5826 -10.5146 -10.3523 -10.3456 -10.3124 -10.2970
   -10.2626 -10.2371 -10.2284 -10.2065 -10.1676 -10.1496   0.0415   0.0689
     0.2343   0.2764   0.4225   0.4473   0.5788   0.6159   0.6709   0.7057
     0.8297   0.8673   1.0069   1.0644   1.1488   1.2536   1.3157   1.3878
     1.4598   1.5477   1.5779   1.6433   1.6440   1.7497   1.8018   1.9224
     1.9855   2.0258   2.0701   2.1116   2.1693   2.2468   2.2515   2.3287
     2.3356   2.4090   7.2492   7.3037   7.3130   7.4050   7.4186   7.5075
     8.5808   8.5832   9.1262   9.1420   9.2543   9.5659   9.7621   9.8309
     9.8682   9.9756  10.0780  10.1787  10.2779  10.3866  10.4825  10.7811
    11.1200  11.2095

          k = 0.0239 0.0278-0.0680 ( 44552 PWs)   bands (ev):

   -56.2780 -56.2780 -56.2780 -56.2780 -56.2751 -56.2751 -56.2751 -56.2751
   -56.2604 -56.2603 -56.2603 -56.2603 -56.2552 -56.2552 -56.2551 -56.2551
   -56.2528 -56.2528 -56.2527 -56.2527 -56.2393 -56.2393 -56.2393 -56.2393
   -56.2272 -56.2272 -56.2272 -56.2272 -56.2236 -56.2236 -56.2235 -56.2235
   -56.2125 -56.2125 -56.2124 -56.2124 -56.2095 -56.2095 -56.2095 -56.2095
   -56.1943 -56.1943 -56.1943 -56.1943 -56.1933 -56.1933 -56.1933 -56.1933
   -56.1924 -56.1924 -56.1923 -56.1923 -56.1862 -56.1862 -56.1862 -56.1862
   -56.1833 -56.1833 -56.1832 -56.1832 -46.9314 -46.9314 -42.0575 -42.0575
   -41.7891 -41.7890 -41.7606 -41.7606 -20.7595 -20.7595 -20.7542 -20.7542
   -20.7541 -20.7539 -10.5668 -10.4983 -10.3693 -10.3558 -10.3141 -10.2984
   -10.2503 -10.2375 -10.2359 -10.1875 -10.1774 -10.1664  -0.0234  -0.0168
     0.2542   0.2940   0.3588   0.3889   0.5835   0.6083   0.6310   0.7096
     0.8333   0.8378   1.0976   1.1210   1.1815   1.3112   1.3171   1.3955
     1.4954   1.5518   1.5805   1.6224   1.7331   1.8209   1.8862   1.9051
     1.9685   2.0385   2.0387   2.1124   2.1196   2.2338   2.2543   2.3114
     2.3996   2.4502   7.1932   7.2564   7.2840   7.3720   7.3726   7.4896
     8.6479   8.6882   9.0346   9.1892   9.3578   9.4107   9.6139   9.6639
     9.7641   9.7911   9.9340  10.2784  10.3733  10.4961  10.5053  10.7784
    10.9086  11.0128

          k = 0.0239 0.0278-0.0425 ( 44558 PWs)   bands (ev):

   -56.2781 -56.2780 -56.2780 -56.2780 -56.2751 -56.2751 -56.2751 -56.2751
   -56.2604 -56.2603 -56.2603 -56.2603 -56.2552 -56.2551 -56.2551 -56.2551
   -56.2528 -56.2528 -56.2527 -56.2527 -56.2393 -56.2393 -56.2393 -56.2393
   -56.2272 -56.2272 -56.2272 -56.2272 -56.2236 -56.2236 -56.2235 -56.2235
   -56.2125 -56.2125 -56.2124 -56.2124 -56.2095 -56.2095 -56.2095 -56.2095
   -56.1943 -56.1943 -56.1943 -56.1943 -56.1933 -56.1933 -56.1933 -56.1933
   -56.1924 -56.1924 -56.1923 -56.1923 -56.1862 -56.1862 -56.1862 -56.1862
   -56.1833 -56.1833 -56.1833 -56.1832 -46.9314 -46.9314 -42.0575 -42.0575
   -41.7891 -41.7890 -41.7606 -41.7606 -20.7595 -20.7595 -20.7542 -20.7542
   -20.7541 -20.7539 -10.6142 -10.5402 -10.3397 -10.3331 -10.3017 -10.2927
   -10.2490 -10.2241 -10.2124 -10.1855 -10.1851 -10.1710  -0.0850  -0.0738
     0.2360   0.2426   0.3293   0.3503   0.4528   0.4548   0.5373   0.5704
     0.8667   0.9534   1.1051   1.2006   1.2589   1.2986   1.3654   1.4540
     1.5500   1.5739   1.6254   1.7139   1.7611   1.8042   1.8776   1.9035
     1.9327   2.0597   2.0926   2.1328   2.2350   2.2960   2.3546   2.3820
     2.4535   2.4885   7.2207   7.2545   7.2658   7.3463   7.3660   7.4351
     8.4414   8.7271   8.8867   8.9150   9.2276   9.2419   9.5381   9.5884
     9.7288   9.7640   9.9673  10.0810  10.1915  10.3195  10.3677  10.4534
    10.9687  10.9766

          k = 0.0239 0.0278-0.0170 ( 44580 PWs)   bands (ev):

   -56.2781 -56.2780 -56.2780 -56.2780 -56.2751 -56.2751 -56.2751 -56.2751
   -56.2604 -56.2604 -56.2603 -56.2603 -56.2552 -56.2551 -56.2551 -56.2551
   -56.2528 -56.2528 -56.2527 -56.2527 -56.2393 -56.2393 -56.2393 -56.2393
   -56.2272 -56.2272 -56.2272 -56.2272 -56.2236 -56.2236 -56.2235 -56.2235
   -56.2125 -56.2125 -56.2124 -56.2124 -56.2096 -56.2095 -56.2095 -56.2095
   -56.1943 -56.1943 -56.1943 -56.1943 -56.1933 -56.1933 -56.1933 -56.1933
   -56.1924 -56.1924 -56.1923 -56.1923 -56.1862 -56.1862 -56.1862 -56.1862
   -56.1833 -56.1833 -56.1833 -56.1832 -46.9314 -46.9314 -42.0575 -42.0575
   -41.7891 -41.7890 -41.7606 -41.7606 -20.7595 -20.7595 -20.7542 -20.7541
   -20.7541 -20.7539 -10.6578 -10.5796 -10.3388 -10.3137 -10.2945 -10.2817
   -10.2324 -10.2115 -10.2061 -10.1860 -10.1721 -10.1638  -0.1274  -0.0931
     0.1752   0.1790   0.2910   0.3162   0.4720   0.4936   0.5430   0.5725
     0.9005   0.9184   1.0786   1.1343   1.2265   1.2942   1.3022   1.3839
     1.5507   1.5657   1.6797   1.6804   1.7729   1.8419   1.8725   1.9734
     1.9740   2.0733   2.1402   2.1446   2.3286   2.3758   2.4003   2.4723
     2.5082   2.5127   7.1890   7.3144   7.3314   7.3734   7.4089   7.4371
     8.0710   8.5830   8.8653   8.8673   9.1010   9.1723   9.5560   9.5756
     9.5960   9.7729   9.8672  10.0126  10.1436  10.3010  10.3471  10.4090
    11.0324  11.0561

          k = 0.0478 0.0000 0.0170 ( 44595 PWs)   bands (ev):

   -56.2781 -56.2781 -56.2780 -56.2780 -56.2751 -56.2751 -56.2751 -56.2751
   -56.2604 -56.2604 -56.2603 -56.2603 -56.2552 -56.2551 -56.2551 -56.2551
   -56.2528 -56.2528 -56.2528 -56.2527 -56.2393 -56.2393 -56.2393 -56.2393
   -56.2272 -56.2272 -56.2272 -56.2272 -56.2236 -56.2236 -56.2235 -56.2235
   -56.2125 -56.2125 -56.2124 -56.2124 -56.2096 -56.2095 -56.2095 -56.2095
   -56.1943 -56.1943 -56.1943 -56.1943 -56.1933 -56.1933 -56.1933 -56.1933
   -56.1924 -56.1924 -56.1923 -56.1923 -56.1862 -56.1862 -56.1862 -56.1862
   -56.1833 -56.1833 -56.1833 -56.1833 -46.9314 -46.9314 -42.0575 -42.0575
   -41.7891 -41.7891 -41.7606 -41.7606 -20.7595 -20.7595 -20.7542 -20.7542
   -20.7541 -20.7539 -10.6264 -10.4902 -10.3656 -10.3567 -10.3060 -10.2840
   -10.2616 -10.2523 -10.2097 -10.1931 -10.1556 -10.1486  -0.0426   0.1235
     0.3067   0.3300   0.3703   0.4156   0.4527   0.5755   0.6885   0.7109
     0.7738   0.8662   0.8851   0.9691   1.0643   1.1938   1.2729   1.4335
     1.4547   1.5539   1.6163   1.6329   1.6925   1.9016   1.9545   1.9668
     1.9715   1.9971   2.1106   2.1142   2.1737   2.2055   2.3419   2.4331
     2.4360   2.4924   7.2113   7.3041   7.3536   7.3828   7.4001   7.4388
     8.3757   8.7938   8.9311   8.9968   9.0417   9.1613   9.5328   9.7915
     9.9301  10.0431  10.1264  10.2182  10.4115  10.5501  10.5570  10.8502
    10.9195  11.2037

          k = 0.0478 0.0000 0.0425 ( 44554 PWs)   bands (ev):

   -56.2781 -56.2780 -56.2780 -56.2780 -56.2751 -56.2751 -56.2751 -56.2751
   -56.2604 -56.2604 -56.2603 -56.2603 -56.2552 -56.2552 -56.2551 -56.2551
   -56.2528 -56.2528 -56.2527 -56.2527 -56.2393 -56.2393 -56.2393 -56.2393
   -56.2272 -56.2272 -56.2272 -56.2271 -56.2236 -56.2236 -56.2235 -56.2235
   -56.2125 -56.2124 -56.2124 -56.2124 -56.2096 -56.2095 -56.2095 -56.2095
   -56.1943 -56.1943 -56.1943 -56.1943 -56.1933 -56.1933 -56.1933 -56.1933
   -56.1924 -56.1924 -56.1923 -56.1923 -56.1862 -56.1862 -56.1862 -56.1862
   -56.1833 -56.1833 -56.1833 -56.1832 -46.9314 -46.9314 -42.0575 -42.0575
   -41.7891 -41.7890 -41.7606 -41.7606 -20.7595 -20.7595 -20.7542 -20.7542
   -20.7541 -20.7539 -10.5879 -10.4760 -10.3732 -10.3434 -10.3200 -10.2900
   -10.2806 -10.2529 -10.2297 -10.1985 -10.1565 -10.1480   0.0725   0.1027
     0.2908   0.2932   0.4666   0.4824   0.5217   0.5644   0.6674   0.7481
     0.7488   0.8776   1.0057   1.0418   1.0774   1.0966   1.2012   1.3699
     1.3996   1.5146   1.5344   1.7025   1.7509   1.8902   1.9047   1.9532
     1.9717   2.0102   2.0638   2.1217   2.1255   2.2448   2.2897   2.3212
     2.3780   2.4669   7.2037   7.2519   7.3789   7.3855   7.4191   7.4465
     8.6774   8.7206   8.8986   8.9954   9.0884   9.4284   9.5011   9.8840
    10.0132  10.0531  10.1146  10.2284  10.2791  10.5144  10.5640  10.7805
    10.9464  11.2978

          k = 0.0478 0.0000 0.0680 ( 44557 PWs)   bands (ev):

   -56.2781 -56.2780 -56.2780 -56.2780 -56.2751 -56.2751 -56.2751 -56.2751
   -56.2603 -56.2603 -56.2603 -56.2603 -56.2552 -56.2552 -56.2551 -56.2551
   -56.2528 -56.2528 -56.2527 -56.2527 -56.2393 -56.2393 -56.2393 -56.2392
   -56.2272 -56.2272 -56.2272 -56.2272 -56.2236 -56.2236 -56.2235 -56.2235
   -56.2125 -56.2124 -56.2124 -56.2124 -56.2095 -56.2095 -56.2095 -56.2095
   -56.1943 -56.1943 -56.1943 -56.1943 -56.1933 -56.1933 -56.1933 -56.1933
   -56.1924 -56.1924 -56.1923 -56.1923 -56.1862 -56.1862 -56.1862 -56.1862
   -56.1833 -56.1833 -56.1833 -56.1832 -46.9314 -46.9314 -42.0575 -42.0575
   -41.7891 -41.7890 -41.7606 -41.7606 -20.7595 -20.7595 -20.7543 -20.7542
   -20.7541 -20.7539 -10.5398 -10.4480 -10.3706 -10.3598 -10.3195 -10.2992
   -10.2796 -10.2748 -10.2606 -10.1881 -10.1619 -10.1603  -0.0101   0.0676
     0.2326   0.2570   0.4236   0.4446   0.5578   0.5804   0.6657   0.7171
     0.7266   0.8818   0.9060   1.0392   1.1387   1.3269   1.3409   1.4195
     1.4213   1.5412   1.6485   1.7882   1.8237   1.8503   1.9108   1.9528
     1.9927   2.0051   2.0792   2.1055   2.1295   2.1899   2.1961   2.2346
     2.3887   2.4962   7.1138   7.1873   7.3333   7.3566   7.3863   7.4176
     8.6947   8.8767   9.0004   9.0081   9.2916   9.3797   9.5385   9.6178
     9.6569   9.7775  10.0318  10.0906  10.1660  10.2459  10.3807  10.4343
    11.0860  11.2214

          k = 0.0478 0.0000-0.0595 ( 44559 PWs)   bands (ev):

   -56.2781 -56.2780 -56.2780 -56.2780 -56.2751 -56.2751 -56.2751 -56.2751
   -56.2603 -56.2603 -56.2603 -56.2603 -56.2552 -56.2551 -56.2551 -56.2551
   -56.2528 -56.2528 -56.2527 -56.2527 -56.2393 -56.2393 -56.2393 -56.2393
   -56.2272 -56.2272 -56.2272 -56.2272 -56.2236 -56.2235 -56.2235 -56.2235
   -56.2125 -56.2124 -56.2124 -56.2124 -56.2095 -56.2095 -56.2095 -56.2095
   -56.1943 -56.1943 -56.1943 -56.1943 -56.1933 -56.1933 -56.1933 -56.1933
   -56.1924 -56.1924 -56.1923 -56.1923 -56.1862 -56.1862 -56.1862 -56.1862
   -56.1833 -56.1833 -56.1833 -56.1833 -46.9314 -46.9314 -42.0575 -42.0575
   -41.7891 -41.7890 -41.7606 -41.7606 -20.7595 -20.7595 -20.7543 -20.7543
   -20.7541 -20.7539 -10.5469 -10.4263 -10.3764 -10.3556 -10.3118 -10.3045
   -10.2936 -10.2586 -10.2576 -10.1875 -10.1740 -10.1685  -0.0542  -0.0358
     0.1826   0.2245   0.3593   0.3735   0.4552   0.4723   0.5442   0.6388
     0.7467   0.9420   1.0990   1.1435   1.2443   1.3724   1.3825   1.5075
     1.5203   1.6876   1.7398   1.7797   1.7911   1.8235   1.8325   1.9121
     1.9295   2.0388   2.1053   2.1769   2.1992   2.1993   2.2651   2.3216
     2.4479   2.4761   7.0953   7.1847   7.2696   7.2700   7.2996   7.3804
     8.6245   8.7693   8.9632   9.0752   9.2015   9.2701   9.3945   9.4258
     9.5863   9.7453   9.8129   9.9403   9.9775  10.0726  10.2761  10.4591
    11.0179  11.2176

          k = 0.0478 0.0000-0.0340 ( 44518 PWs)   bands (ev):

   -56.2781 -56.2780 -56.2780 -56.2780 -56.2751 -56.2751 -56.2751 -56.2751
   -56.2603 -56.2603 -56.2603 -56.2603 -56.2552 -56.2551 -56.2551 -56.2551
   -56.2528 -56.2527 -56.2527 -56.2527 -56.2393 -56.2393 -56.2393 -56.2393
   -56.2272 -56.2272 -56.2272 -56.2272 -56.2236 -56.2235 -56.2235 -56.2235
   -56.2125 -56.2124 -56.2124 -56.2124 -56.2095 -56.2095 -56.2095 -56.2095
   -56.1943 -56.1943 -56.1943 -56.1943 -56.1933 -56.1933 -56.1933 -56.1933
   -56.1924 -56.1923 -56.1923 -56.1923 -56.1862 -56.1862 -56.1862 -56.1862
   -56.1833 -56.1833 -56.1832 -56.1832 -46.9314 -46.9314 -42.0575 -42.0575
   -41.7891 -41.7890 -41.7606 -41.7606 -20.7595 -20.7595 -20.7543 -20.7542
   -20.7541 -20.7539 -10.5972 -10.4526 -10.3574 -10.3311 -10.3254 -10.2946
   -10.2842 -10.2495 -10.2293 -10.1992 -10.1677 -10.1665  -0.1320  -0.0024
     0.1667   0.2621   0.3496   0.3747   0.3900   0.4192   0.4809   0.5268
     0.6598   0.9616   1.1613   1.1834   1.3454   1.3683   1.4086   1.4663
     1.5685   1.7031   1.7266   1.7722   1.8189   1.8246   1.8635   1.8729
     1.9610   2.0162   2.0494   2.1411   2.2487   2.3493   2.3622   2.4060
     2.4308   2.5104   7.1439   7.1716   7.2223   7.2917   7.2934   7.3703
     8.3588   8.7649   8.8449   9.1208   9.1419   9.2660   9.3753   9.5646
     9.6272   9.6617   9.7752   9.9169   9.9792  10.0157  10.1878  10.2053
    10.8485  11.2955

          k = 0.0478 0.0000-0.0085 ( 44572 PWs)   bands (ev):

   -56.2781 -56.2781 -56.2780 -56.2780 -56.2751 -56.2751 -56.2751 -56.2751
   -56.2604 -56.2603 -56.2603 -56.2603 -56.2552 -56.2551 -56.2551 -56.2551
   -56.2528 -56.2528 -56.2527 -56.2527 -56.2393 -56.2393 -56.2393 -56.2393
   -56.2272 -56.2272 -56.2272 -56.2272 -56.2236 -56.2236 -56.2235 -56.2235
   -56.2125 -56.2124 -56.2124 -56.2124 -56.2095 -56.2095 -56.2095 -56.2095
   -56.1943 -56.1943 -56.1943 -56.1943 -56.1933 -56.1933 -56.1933 -56.1933
   -56.1924 -56.1924 -56.1923 -56.1923 -56.1862 -56.1862 -56.1862 -56.1862
   -56.1833 -56.1833 -56.1833 -56.1832 -46.9314 -46.9314 -42.0575 -42.0575
   -41.7891 -41.7890 -41.7606 -41.7606 -20.7595 -20.7595 -20.7542 -20.7542
   -20.7541 -20.7539 -10.6301 -10.4822 -10.3602 -10.3414 -10.3114 -10.2779
   -10.2713 -10.2576 -10.2108 -10.1893 -10.1586 -10.1583  -0.1345   0.0707
     0.2404   0.2903   0.3031   0.3876   0.4344   0.4733   0.5533   0.6109
     0.6883   0.8881   0.9079   1.1545   1.2143   1.3409   1.3668   1.4543
     1.5455   1.6119   1.6869   1.7109   1.7779   1.8534   1.8964   1.9373
     1.9688   2.0201   2.0988   2.1956   2.2405   2.2849   2.3497   2.4029
     2.4782   2.5024   7.1545   7.2622   7.2658   7.3508   7.3626   7.4038
     8.2343   8.8110   9.0131   9.0809   9.1151   9.2015   9.2800   9.5840
     9.6833   9.8615   9.9629  10.0111  10.0808  10.2638  10.3437  10.3840
    10.8446  11.1413

          k = 0.0478 0.0278 0.0170 ( 44558 PWs)   bands (ev):

   -56.2781 -56.2781 -56.2780 -56.2780 -56.2751 -56.2751 -56.2751 -56.2751
   -56.2604 -56.2603 -56.2603 -56.2603 -56.2552 -56.2551 -56.2551 -56.2551
   -56.2528 -56.2528 -56.2527 -56.2527 -56.2393 -56.2393 -56.2393 -56.2393
   -56.2272 -56.2272 -56.2272 -56.2272 -56.2236 -56.2236 -56.2235 -56.2235
   -56.2125 -56.2124 -56.2124 -56.2124 -56.2095 -56.2095 -56.2095 -56.2095
   -56.1943 -56.1943 -56.1943 -56.1943 -56.1933 -56.1933 -56.1933 -56.1933
   -56.1924 -56.1924 -56.1923 -56.1923 -56.1862 -56.1862 -56.1862 -56.1862
   -56.1833 -56.1833 -56.1833 -56.1832 -46.9314 -46.9314 -42.0575 -42.0575
   -41.7891 -41.7890 -41.7606 -41.7606 -20.7595 -20.7595 -20.7542 -20.7542
   -20.7540 -20.7540 -10.6017 -10.5388 -10.3585 -10.3308 -10.3147 -10.2907
   -10.2545 -10.2362 -10.2109 -10.2009 -10.1602 -10.1521  -0.0266   0.0533
     0.2560   0.2892   0.3855   0.3875   0.5237   0.5642   0.6233   0.6398
     0.8108   0.9614   1.0272   1.0280   1.1840   1.1921   1.3111   1.4228
     1.5094   1.5099   1.5917   1.6902   1.7220   1.7957   1.8456   1.8523
     1.9487   2.0045   2.1100   2.1147   2.2478   2.2660   2.3200   2.3397
     2.4078   2.4739   7.2552   7.3171   7.3539   7.3900   7.4040   7.4600
     8.4585   8.6100   9.0006   9.1677   9.1767   9.3191   9.5365   9.7735
     9.8835  10.0894  10.1153  10.1926  10.2260  10.4399  10.5585  10.6632
    10.9875  11.1532

          k = 0.0478 0.0278 0.0425 ( 44554 PWs)   bands (ev):

   -56.2781 -56.2780 -56.2780 -56.2780 -56.2751 -56.2751 -56.2751 -56.2751
   -56.2604 -56.2603 -56.2603 -56.2603 -56.2552 -56.2552 -56.2551 -56.2551
   -56.2528 -56.2528 -56.2527 -56.2527 -56.2393 -56.2393 -56.2393 -56.2393
   -56.2272 -56.2272 -56.2272 -56.2272 -56.2236 -56.2236 -56.2235 -56.2235
   -56.2125 -56.2124 -56.2124 -56.2124 -56.2095 -56.2095 -56.2095 -56.2095
   -56.1943 -56.1943 -56.1943 -56.1943 -56.1933 -56.1933 -56.1933 -56.1933
   -56.1924 -56.1924 -56.1923 -56.1923 -56.1862 -56.1862 -56.1862 -56.1862
   -56.1833 -56.1833 -56.1833 -56.1833 -46.9314 -46.9314 -42.0575 -42.0575
   -41.7891 -41.7890 -41.7606 -41.7606 -20.7595 -20.7595 -20.7543 -20.7542
   -20.7540 -20.7540 -10.5661 -10.5127 -10.3724 -10.3426 -10.3021 -10.3005
   -10.2695 -10.2490 -10.2192 -10.2168 -10.1565 -10.1491   0.0351   0.0415
     0.2926   0.2958   0.4266   0.4293   0.6053   0.6137   0.6593   0.7400
     0.8243   0.8353   1.0116   1.0360   1.0979   1.1550   1.3364   1.4155
     1.4780   1.5653   1.5968   1.6646   1.6845   1.7605   1.8350   1.8532
     1.9229   1.9976   2.0745   2.1495   2.1869   2.2520   2.2621   2.2917
     2.3951   2.3981   7.2285   7.3126   7.3151   7.3970   7.4377   7.4783
     8.5881   8.6047   9.0898   9.0981   9.3367   9.5600   9.6368   9.8208
     9.9061   9.9680  10.0819  10.2268  10.3093  10.3096  10.5724  10.7828
    11.0587  11.2069

          k = 0.0478 0.0278 0.0680 ( 44573 PWs)   bands (ev):

   -56.2781 -56.2780 -56.2780 -56.2780 -56.2751 -56.2751 -56.2751 -56.2751
   -56.2604 -56.2603 -56.2603 -56.2603 -56.2552 -56.2552 -56.2551 -56.2551
   -56.2528 -56.2528 -56.2527 -56.2527 -56.2393 -56.2393 -56.2393 -56.2393
   -56.2272 -56.2272 -56.2272 -56.2272 -56.2236 -56.2236 -56.2235 -56.2235
   -56.2125 -56.2125 -56.2124 -56.2124 -56.2095 -56.2095 -56.2095 -56.2095
   -56.1943 -56.1943 -56.1943 -56.1943 -56.1933 -56.1933 -56.1933 -56.1933
   -56.1924 -56.1924 -56.1923 -56.1923 -56.1862 -56.1862 -56.1862 -56.1862
   -56.1833 -56.1833 -56.1833 -56.1832 -46.9314 -46.9314 -42.0575 -42.0575
   -41.7891 -41.7890 -41.7606 -41.7606 -20.7595 -20.7595 -20.7543 -20.7543
   -20.7540 -20.7540 -10.5197 -10.4732 -10.3763 -10.3616 -10.3241 -10.3182
   -10.2639 -10.2527 -10.2386 -10.2112 -10.1622 -10.1604  -0.0686  -0.0466
     0.2874   0.3432   0.3884   0.4271   0.5575   0.6092   0.7328   0.7485
     0.8112   0.8974   0.9291   0.9585   1.0967   1.2735   1.4601   1.4814
     1.5011   1.6290   1.6612   1.7301   1.7332   1.7655   1.8539   1.8921
     1.9662   2.0064   2.0353   2.0400   2.1409   2.2231   2.2777   2.3048
     2.3650   2.4128   7.1315   7.2365   7.2755   7.3792   7.4107   7.4442
     8.6867   8.7604   8.9937   9.0118   9.3830   9.4280   9.5054   9.5111
     9.8332   9.8806   9.9538  10.1575  10.3656  10.3673  10.5922  10.8051
    11.0461  11.1914

          k = 0.0478 0.0278-0.0595 ( 44561 PWs)   bands (ev):

   -56.2781 -56.2780 -56.2780 -56.2780 -56.2751 -56.2751 -56.2751 -56.2751
   -56.2603 -56.2603 -56.2603 -56.2603 -56.2552 -56.2551 -56.2551 -56.2551
   -56.2528 -56.2528 -56.2527 -56.2527 -56.2393 -56.2393 -56.2393 -56.2393
   -56.2272 -56.2272 -56.2272 -56.2272 -56.2236 -56.2236 -56.2235 -56.2235
   -56.2125 -56.2125 -56.2124 -56.2124 -56.2095 -56.2095 -56.2095 -56.2095
   -56.1943 -56.1943 -56.1943 -56.1943 -56.1933 -56.1933 -56.1933 -56.1933
   -56.1924 -56.1924 -56.1923 -56.1923 -56.1862 -56.1862 -56.1862 -56.1862
   -56.1833 -56.1833 -56.1833 -56.1833 -46.9314 -46.9314 -42.0575 -42.0575
   -41.7891 -41.7890 -41.7606 -41.7606 -20.7595 -20.7595 -20.7543 -20.7543
   -20.7540 -20.7540 -10.5238 -10.4664 -10.3711 -10.3585 -10.3240 -10.3204
   -10.2594 -10.2455 -10.2360 -10.2019 -10.1787 -10.1755  -0.1417  -0.1284
     0.2680   0.2774   0.3380   0.3555   0.4879   0.4882   0.6208   0.6739
     0.8445   0.9521   1.1113   1.1219   1.1920   1.2791   1.4859   1.4954
     1.5495   1.6481   1.6785   1.7046   1.7557   1.7877   1.8789   1.9358
     1.9769   2.0254   2.1231   2.1357   2.1781   2.2371   2.3250   2.3321
     2.4044   2.4070   7.0765   7.1507   7.2792   7.3262   7.3518   7.3799
     8.7032   8.7285   8.9180   8.9743   9.1718   9.2064   9.3505   9.3630
     9.5916   9.7223  10.0837  10.1669  10.3856  10.4685  10.5699  10.5913
    10.9204  11.0539

          k = 0.0478 0.0278-0.0340 ( 44579 PWs)   bands (ev):

   -56.2781 -56.2780 -56.2780 -56.2780 -56.2751 -56.2751 -56.2751 -56.2751
   -56.2604 -56.2603 -56.2603 -56.2603 -56.2552 -56.2551 -56.2551 -56.2551
   -56.2528 -56.2528 -56.2527 -56.2527 -56.2393 -56.2393 -56.2393 -56.2393
   -56.2272 -56.2272 -56.2272 -56.2272 -56.2236 -56.2236 -56.2235 -56.2235
   -56.2125 -56.2125 -56.2124 -56.2124 -56.2095 -56.2095 -56.2095 -56.2095
   -56.1943 -56.1943 -56.1943 -56.1943 -56.1933 -56.1933 -56.1933 -56.1933
   -56.1924 -56.1924 -56.1923 -56.1923 -56.1862 -56.1862 -56.1862 -56.1862
   -56.1833 -56.1833 -56.1833 -56.1833 -46.9314 -46.9314 -42.0575 -42.0575
   -41.7891 -41.7890 -41.7606 -41.7606 -20.7595 -20.7595 -20.7543 -20.7543
   -20.7540 -20.7540 -10.5715 -10.5056 -10.3459 -10.3332 -10.3177 -10.3010
   -10.2674 -10.2295 -10.2136 -10.2117 -10.1797 -10.1777  -0.1675  -0.1083
     0.2276   0.2661   0.3285   0.3345   0.4268   0.4451   0.5013   0.5025
     0.9241   1.0237   1.1214   1.1461   1.3114   1.4200   1.4431   1.4807
     1.5687   1.6032   1.6262   1.6754   1.7456   1.7564   1.9431   1.9508
     1.9939   2.0353   2.0866   2.1122   2.3155   2.3418   2.3592   2.3867
     2.4003   2.4449   7.1292   7.1541   7.2373   7.3342   7.3426   7.3595
     8.5249   8.7434   8.7984   8.9707   9.1322   9.1680   9.3575   9.4652
     9.5545   9.6106  10.0700  10.1717  10.2475  10.2956  10.3895  10.4214
    10.8606  11.1308

          k = 0.0478 0.0278-0.0085 ( 44576 PWs)   bands (ev):

   -56.2781 -56.2780 -56.2780 -56.2780 -56.2751 -56.2751 -56.2751 -56.2751
   -56.2604 -56.2604 -56.2603 -56.2603 -56.2552 -56.2551 -56.2551 -56.2551
   -56.2528 -56.2528 -56.2527 -56.2527 -56.2393 -56.2393 -56.2393 -56.2392
   -56.2272 -56.2272 -56.2272 -56.2272 -56.2236 -56.2236 -56.2235 -56.2235
   -56.2125 -56.2124 -56.2124 -56.2124 -56.2095 -56.2095 -56.2095 -56.2095
   -56.1943 -56.1943 -56.1943 -56.1943 -56.1933 -56.1933 -56.1933 -56.1933
   -56.1924 -56.1924 -56.1923 -56.1923 -56.1862 -56.1862 -56.1862 -56.1862
   -56.1833 -56.1833 -56.1833 -56.1832 -46.9314 -46.9314 -42.0575 -42.0575
   -41.7891 -41.7890 -41.7606 -41.7606 -20.7595 -20.7595 -20.7543 -20.7542
   -20.7540 -20.7540 -10.6038 -10.5362 -10.3404 -10.3235 -10.3208 -10.2944
   -10.2606 -10.2264 -10.2080 -10.2006 -10.1690 -10.1652  -0.1230  -0.0280
     0.2237   0.2689   0.3458   0.3791   0.4296   0.4622   0.5175   0.5226
     0.9006   1.0052   1.0800   1.0956   1.2136   1.3794   1.3800   1.4657
     1.5653   1.5872   1.6130   1.6634   1.7306   1.7661   1.9117   1.9177
     2.0157   2.0274   2.0916   2.1240   2.2457   2.2829   2.3581   2.3997
     2.4436   2.4934   7.2110   7.2439   7.2861   7.3617   7.3831   7.3985
     8.4177   8.7321   8.9297   8.9503   9.0491   9.1519   9.6015   9.6778
     9.7357   9.8719   9.9222  10.0877  10.1314  10.3292  10.3540  10.4891
    10.9137  11.0549

          k =-0.0718 0.0000-0.0255 ( 44568 PWs)   bands (ev):

   -56.2781 -56.2781 -56.2780 -56.2780 -56.2751 -56.2751 -56.2751 -56.2751
   -56.2604 -56.2604 -56.2603 -56.2603 -56.2552 -56.2551 -56.2551 -56.2551
   -56.2528 -56.2528 -56.2527 -56.2527 -56.2393 -56.2393 -56.2393 -56.2393
   -56.2272 -56.2272 -56.2272 -56.2272 -56.2236 -56.2236 -56.2235 -56.2235
   -56.2125 -56.2124 -56.2124 -56.2124 -56.2096 -56.2095 -56.2095 -56.2095
   -56.1943 -56.1943 -56.1943 -56.1943 -56.1933 -56.1933 -56.1933 -56.1933
   -56.1924 -56.1924 -56.1923 -56.1923 -56.1862 -56.1862 -56.1862 -56.1862
   -56.1833 -56.1833 -56.1833 -56.1833 -46.9314 -46.9314 -42.0575 -42.0575
   -41.7891 -41.7890 -41.7606 -41.7606 -20.7595 -20.7595 -20.7543 -20.7542
   -20.7540 -20.7540 -10.5349 -10.5349 -10.3477 -10.3477 -10.3236 -10.3236
   -10.2699 -10.2699 -10.1917 -10.1917 -10.1606 -10.1606   0.0666   0.0666
     0.3790   0.3790   0.4257   0.4257   0.5090   0.5090   0.7343   0.7343
     0.8379   0.8379   1.0047   1.0047   1.1205   1.1205   1.1474   1.1474
     1.5900   1.5900   1.6750   1.6750   1.7174   1.7174   1.8371   1.8371
     2.0449   2.0449   2.0618   2.0618   2.1979   2.1979   2.3646   2.3646
     2.4211   2.4211   7.2741   7.2741   7.3128   7.3128   7.4280   7.4280
     8.7495   8.7495   8.9080   8.9080   9.2889   9.2889   9.8020   9.8020
    10.0636  10.0636  10.1581  10.1581  10.3759  10.3759  10.7201  10.7201
    11.1723  11.1724

          k =-0.0718 0.0000-0.0000 ( 44570 PWs)   bands (ev):

   -56.2781 -56.2780 -56.2780 -56.2780 -56.2751 -56.2751 -56.2751 -56.2751
   -56.2604 -56.2604 -56.2603 -56.2603 -56.2552 -56.2552 -56.2551 -56.2551
   -56.2528 -56.2528 -56.2527 -56.2527 -56.2393 -56.2393 -56.2393 -56.2393
   -56.2272 -56.2272 -56.2272 -56.2272 -56.2236 -56.2236 -56.2235 -56.2235
   -56.2125 -56.2124 -56.2124 -56.2124 -56.2096 -56.2095 -56.2095 -56.2095
   -56.1943 -56.1943 -56.1943 -56.1943 -56.1933 -56.1933 -56.1933 -56.1933
   -56.1924 -56.1924 -56.1923 -56.1923 -56.1862 -56.1862 -56.1862 -56.1862
   -56.1833 -56.1833 -56.1833 -56.1832 -46.9314 -46.9314 -42.0575 -42.0575
   -41.7891 -41.7890 -41.7606 -41.7606 -20.7595 -20.7595 -20.7543 -20.7543
   -20.7540 -20.7540 -10.5431 -10.5010 -10.3522 -10.3382 -10.3291 -10.3052
   -10.2943 -10.2740 -10.2081 -10.1865 -10.1675 -10.1589  -0.0524   0.1316
     0.2958   0.3339   0.4009   0.4541   0.4696   0.5622   0.5892   0.6209
     0.7407   0.9042   0.9381   1.1255   1.1560   1.2314   1.2730   1.3200
     1.5046   1.6928   1.7038   1.7176   1.7389   1.7523   1.8059   1.9374
     2.0133   2.0400   2.0761   2.1203   2.1282   2.2286   2.3141   2.3440
     2.4038   2.4378   7.2010   7.2590   7.2800   7.3006   7.4024   7.4125
     8.6700   8.8480   8.9071   9.0450   9.2789   9.4078   9.4581   9.6267
     9.9056   9.9122   9.9439  10.0811  10.2834  10.2939  10.4532  10.4784
    11.1039  11.1526

          k =-0.0718 0.0000 0.0255 ( 44592 PWs)   bands (ev):

   -56.2781 -56.2780 -56.2780 -56.2780 -56.2751 -56.2751 -56.2751 -56.2751
   -56.2604 -56.2603 -56.2603 -56.2603 -56.2552 -56.2551 -56.2551 -56.2551
   -56.2528 -56.2528 -56.2527 -56.2527 -56.2393 -56.2393 -56.2393 -56.2393
   -56.2272 -56.2272 -56.2272 -56.2272 -56.2236 -56.2235 -56.2235 -56.2235
   -56.2125 -56.2124 -56.2124 -56.2124 -56.2095 -56.2095 -56.2095 -56.2095
   -56.1943 -56.1943 -56.1943 -56.1943 -56.1933 -56.1933 -56.1933 -56.1933
   -56.1924 -56.1923 -56.1923 -56.1923 -56.1862 -56.1862 -56.1862 -56.1862
   -56.1833 -56.1833 -56.1833 -56.1833 -46.9314 -46.9314 -42.0575 -42.0575
   -41.7891 -41.7891 -41.7606 -41.7606 -20.7595 -20.7595 -20.7543 -20.7543
   -20.7540 -20.7540 -10.5216 -10.4643 -10.3653 -10.3309 -10.3301 -10.3063
   -10.3006 -10.2712 -10.2343 -10.1982 -10.1739 -10.1647  -0.1110   0.0326
     0.2011   0.2553   0.3448   0.3732   0.4203   0.4698   0.5565   0.6562
     0.6973   0.9262   1.0632   1.1204   1.2824   1.3308   1.4532   1.5582
     1.5703   1.6565   1.6768   1.7263   1.7863   1.7947   1.8678   1.9733
     2.0033   2.0434   2.0833   2.1351   2.1640   2.2494   2.2529   2.3454
     2.3860   2.4978   7.1310   7.2040   7.2226   7.2530   7.3262   7.3456
     8.6130   8.8630   8.9556   9.0359   9.1274   9.2350   9.4253   9.4847
     9.6279   9.7234   9.8162   9.9000   9.9741  10.1091  10.2862  10.4439
    11.0274  11.2203

          k =-0.0718 0.0000-0.1020 ( 44606 PWs)   bands (ev):

   -56.2781 -56.2781 -56.2780 -56.2780 -56.2751 -56.2751 -56.2751 -56.2751
   -56.2604 -56.2604 -56.2603 -56.2603 -56.2552 -56.2551 -56.2551 -56.2551
   -56.2528 -56.2528 -56.2527 -56.2527 -56.2393 -56.2393 -56.2393 -56.2393
   -56.2272 -56.2272 -56.2272 -56.2272 -56.2236 -56.2236 -56.2235 -56.2235
   -56.2125 -56.2125 -56.2124 -56.2124 -56.2095 -56.2095 -56.2095 -56.2095
   -56.1943 -56.1943 -56.1943 -56.1943 -56.1933 -56.1933 -56.1933 -56.1933
   -56.1924 -56.1924 -56.1923 -56.1923 -56.1862 -56.1862 -56.1862 -56.1862
   -56.1833 -56.1833 -56.1833 -56.1833 -46.9314 -46.9314 -42.0575 -42.0575
   -41.7891 -41.7891 -41.7606 -41.7606 -20.7595 -20.7595 -20.7543 -20.7543
   -20.7540 -20.7540 -10.4804 -10.4804 -10.3527 -10.3527 -10.3224 -10.3224
   -10.2765 -10.2765 -10.2272 -10.2272 -10.1724 -10.1724  -0.0780  -0.0780
     0.1881   0.1881   0.3236   0.3236   0.3900   0.3900   0.6083   0.6083
     0.8614   0.8614   1.1779   1.1779   1.2975   1.2975   1.5677   1.5678
     1.6416   1.6416   1.6968   1.6968   1.8209   1.8209   1.8455   1.8455
     2.0436   2.0436   2.0949   2.0949   2.2798   2.2798   2.3081   2.3081
     2.4564   2.4564   7.1510   7.1510   7.2203   7.2203   7.2696   7.2696
     8.6315   8.6315   9.0264   9.0264   9.1843   9.1843   9.3165   9.3165
     9.5700   9.5700   9.7611   9.7611  10.0934  10.0934  10.4003  10.4003
    11.0419  11.0419

          k =-0.0718 0.0278-0.0255 ( 44544 PWs)   bands (ev):

   -56.2781 -56.2781 -56.2780 -56.2780 -56.2751 -56.2751 -56.2751 -56.2751
   -56.2604 -56.2604 -56.2603 -56.2603 -56.2552 -56.2552 -56.2551 -56.2551
   -56.2528 -56.2527 -56.2527 -56.2527 -56.2393 -56.2393 -56.2393 -56.2393
   -56.2272 -56.2272 -56.2272 -56.2272 -56.2236 -56.2236 -56.2235 -56.2235
   -56.2124 -56.2124 -56.2124 -56.2124 -56.2095 -56.2095 -56.2095 -56.2095
   -56.1943 -56.1943 -56.1943 -56.1943 -56.1933 -56.1933 -56.1933 -56.1933
   -56.1924 -56.1924 -56.1923 -56.1923 -56.1862 -56.1862 -56.1862 -56.1862
   -56.1833 -56.1833 -56.1833 -56.1832 -46.9314 -46.9314 -42.0575 -42.0575
   -41.7891 -41.7890 -41.7606 -41.7606 -20.7595 -20.7595 -20.7543 -20.7543
   -20.7540 -20.7540 -10.5290 -10.5290 -10.3834 -10.3833 -10.2912 -10.2912
   -10.2617 -10.2616 -10.2069 -10.2069 -10.1562 -10.1562   0.0302   0.0302
     0.2746   0.2746   0.4692   0.4692   0.6245   0.6245   0.6784   0.6784
     0.8897   0.8897   0.9841   0.9841   1.1917   1.1917   1.2557   1.2557
     1.4830   1.4830   1.6044   1.6044   1.7941   1.7941   1.8656   1.8656
     1.9542   1.9542   2.0540   2.0540   2.2304   2.2304   2.2905   2.2905
     2.4363   2.4363   7.2325   7.2325   7.3525   7.3525   7.4657   7.4657
     8.6240   8.6240   9.2766   9.2766   9.3305   9.3305   9.7739   9.7739
     9.8833   9.8833  10.1164  10.1164  10.4906  10.4906  10.7813  10.7813
    11.0152  11.0152

          k =-0.0718 0.0278-0.0000 ( 44566 PWs)   bands (ev):

   -56.2781 -56.2780 -56.2780 -56.2780 -56.2751 -56.2751 -56.2751 -56.2751
   -56.2604 -56.2604 -56.2603 -56.2603 -56.2552 -56.2551 -56.2551 -56.2551
   -56.2528 -56.2528 -56.2527 -56.2527 -56.2393 -56.2393 -56.2393 -56.2393
   -56.2272 -56.2272 -56.2272 -56.2272 -56.2236 -56.2236 -56.2235 -56.2235
   -56.2125 -56.2124 -56.2124 -56.2124 -56.2096 -56.2095 -56.2095 -56.2095
   -56.1943 -56.1943 -56.1943 -56.1943 -56.1933 -56.1933 -56.1933 -56.1933
   -56.1924 -56.1924 -56.1923 -56.1923 -56.1862 -56.1862 -56.1862 -56.1862
   -56.1833 -56.1833 -56.1833 -56.1832 -46.9314 -46.9314 -42.0575 -42.0575
   -41.7891 -41.7890 -41.7606 -41.7606 -20.7595 -20.7595 -20.7543 -20.7543
   -20.7540 -20.7540 -10.5291 -10.5062 -10.3817 -10.3709 -10.3063 -10.2930
   -10.2704 -10.2597 -10.2168 -10.2028 -10.1625 -10.1588  -0.0659   0.0045
     0.2768   0.3093   0.4107   0.4468   0.5536   0.5739   0.5959   0.6790
     0.8382   0.9499   0.9653   1.1098   1.1952   1.2157   1.3495   1.3606
     1.4731   1.5732   1.6347   1.6440   1.7722   1.7820   1.8847   1.8952
     2.0048   2.0120   2.0885   2.0898   2.1637   2.2053   2.2237   2.3066
     2.4288   2.4578   7.1779   7.2097   7.3186   7.3616   7.4244   7.4443
     8.6814   8.7136   8.9878   9.1150   9.3930   9.4047   9.5495   9.6567
     9.7498   9.7794  10.0030  10.2582  10.4200  10.4225  10.7130  10.7207
    10.9347  10.9580

          k =-0.0718 0.0278 0.0255 ( 44543 PWs)   bands (ev):

   -56.2781 -56.2780 -56.2780 -56.2780 -56.2751 -56.2751 -56.2751 -56.2751
   -56.2603 -56.2603 -56.2603 -56.2603 -56.2552 -56.2551 -56.2551 -56.2551
   -56.2528 -56.2528 -56.2527 -56.2527 -56.2393 -56.2393 -56.2393 -56.2393
   -56.2272 -56.2272 -56.2272 -56.2272 -56.2236 -56.2235 -56.2235 -56.2235
   -56.2125 -56.2124 -56.2124 -56.2124 -56.2095 -56.2095 -56.2095 -56.2095
   -56.1943 -56.1943 -56.1943 -56.1943 -56.1933 -56.1933 -56.1933 -56.1933
   -56.1924 -56.1924 -56.1923 -56.1923 -56.1862 -56.1862 -56.1862 -56.1862
   -56.1833 -56.1833 -56.1833 -56.1832 -46.9314 -46.9314 -42.0575 -42.0575
   -41.7891 -41.7890 -41.7606 -41.7606 -20.7595 -20.7595 -20.7543 -20.7543
   -20.7540 -20.7540 -10.5049 -10.4732 -10.3789 -10.3594 -10.3299 -10.3160
   -10.2682 -10.2461 -10.2333 -10.2039 -10.1773 -10.1701  -0.1616  -0.1098
     0.2576   0.2876   0.3554   0.3738   0.4536   0.5000   0.6210   0.6763
     0.8520   0.9651   1.0354   1.1279   1.2366   1.2469   1.4603   1.5095
     1.5874   1.6344   1.6703   1.6856   1.7477   1.7625   1.9122   1.9634
     2.0152   2.0195   2.1344   2.1513   2.1831   2.2002   2.2780   2.3537
     2.3874   2.4319   7.0808   7.1229   7.3027   7.3164   7.3663   7.3721
     8.7065   8.8112   8.8923   8.9221   9.1096   9.1207   9.3745   9.3778
     9.6615   9.7719  10.0972  10.1301  10.3809  10.4598  10.6153  10.6303
    10.9204  11.0043

          k =-0.0718 0.0278-0.1020 ( 44582 PWs)   bands (ev):

   -56.2781 -56.2781 -56.2780 -56.2780 -56.2751 -56.2751 -56.2751 -56.2751
   -56.2603 -56.2603 -56.2603 -56.2603 -56.2552 -56.2551 -56.2551 -56.2551
   -56.2528 -56.2528 -56.2527 -56.2527 -56.2393 -56.2393 -56.2393 -56.2393
   -56.2272 -56.2272 -56.2272 -56.2272 -56.2236 -56.2236 -56.2235 -56.2235
   -56.2125 -56.2125 -56.2124 -56.2124 -56.2095 -56.2095 -56.2095 -56.2095
   -56.1943 -56.1943 -56.1943 -56.1943 -56.1933 -56.1933 -56.1933 -56.1933
   -56.1924 -56.1924 -56.1923 -56.1923 -56.1862 -56.1862 -56.1862 -56.1862
   -56.1833 -56.1833 -56.1833 -56.1833 -46.9314 -46.9314 -42.0575 -42.0575
   -41.7891 -41.7891 -41.7606 -41.7606 -20.7595 -20.7595 -20.7543 -20.7543
   -20.7540 -20.7540 -10.4701 -10.4701 -10.3788 -10.3788 -10.3256 -10.3256
   -10.2554 -10.2554 -10.2196 -10.2196 -10.1819 -10.1819  -0.1813  -0.1813
     0.2419   0.2419   0.3279   0.3279   0.4640   0.4640   0.6657   0.6657
     0.9200   0.9200   1.1428   1.1428   1.2274   1.2274   1.5268   1.5268
     1.5993   1.5993   1.6909   1.6909   1.7311   1.7311   1.9489   1.9489
     2.1047   2.1047   2.1246   2.1246   2.2722   2.2722   2.3055   2.3055
     2.3957   2.3957   7.0508   7.0508   7.2903   7.2903   7.3347   7.3347
     8.6817   8.6817   8.8086   8.8086   9.1725   9.1725   9.2718   9.2718
     9.6730   9.6730  10.0988  10.0988  10.4101  10.4101  10.6398  10.6398
    10.9308  10.9308

     the Fermi energy is     4.8519 ev

!    total energy              =   -6740.54842403 Ry

     total all-electron energy =   -114993.564382 Ry
     estimated scf accuracy    <          8.2E-09 Ry
     smearing contrib. (-TS)   =      -0.00000000 Ry
     internal energy E=F+TS    =   -6740.54842403 Ry

     The total energy is F=E-TS. E is the sum of the following terms:
     one-electron contribution =   -3515.74916712 Ry
     hartree contribution      =    1687.86946581 Ry
     xc contribution           =    -503.21617148 Ry
     ewald contribution        =   -1690.68325647 Ry
     one-center paw contrib.   =   -2718.76929477 Ry

     convergence has been achieved in   9 iterations

     Forces acting on atoms (cartesian axes, Ry/au):

     atom    1 type  1   force =     0.00000000   -0.00204597    0.00000000
     atom    2 type  1   force =     0.00000000    0.00041201    0.00000000
     atom    3 type  1   force =     0.00000000   -0.00038027    0.00000000
     atom    4 type  1   force =     0.00000000   -0.00204301    0.00000000
     atom    5 type  1   force =     0.00000000    0.00041539    0.00000000
     atom    6 type  1   force =     0.00000000   -0.00038195    0.00000000
     atom    7 type  2   force =     0.00000000    0.00081827    0.00000000
     atom    8 type  2   force =     0.00000000    0.00082173    0.00000000
     atom    9 type  3   force =     0.00088394    0.00153682    0.00386124
     atom   10 type  3   force =     0.00317323   -0.00241616    0.00127755
     atom   11 type  3   force =    -0.00317323   -0.00241616   -0.00127755
     atom   12 type  3   force =    -0.00088394    0.00153682   -0.00386124
     atom   13 type  3   force =    -0.00317347    0.00145141    0.00333401
     atom   14 type  3   force =     0.00317347    0.00145141   -0.00333401
     atom   15 type  3   force =     0.00091429    0.00153417    0.00392356
     atom   16 type  3   force =     0.00316579   -0.00240083    0.00128961
     atom   17 type  3   force =    -0.00316579   -0.00240083   -0.00128961
     atom   18 type  3   force =    -0.00091429    0.00153417   -0.00392356
     atom   19 type  3   force =    -0.00313892    0.00148648    0.00335533
     atom   20 type  3   force =     0.00313892    0.00148648   -0.00335533

     Total force =     0.015710     Total SCF correction =     0.000318


     Computing stress (Cartesian axis) and pressure

          total   stress  (Ry/bohr**3)                   (kbar)     P=       -7.48
  -0.00005395   0.00000000   0.00000131           -7.94        0.00        0.19
   0.00000000  -0.00005555   0.00000000            0.00       -8.17        0.00
   0.00000131   0.00000000  -0.00004301            0.19        0.00       -6.33


     Writing output data file ./pwscf.save/
 
     init_run     :      8.04s CPU      8.38s WALL (       1 calls)
     electrons    :    208.99s CPU    210.99s WALL (       1 calls)
     forces       :      3.05s CPU      3.06s WALL (       1 calls)
     stress       :     26.34s CPU     26.41s WALL (       1 calls)

     Called by init_run:
     wfcinit      :      6.36s CPU      6.46s WALL (       1 calls)
     potinit      :      0.59s CPU      0.70s WALL (       1 calls)
     hinit0       :      0.66s CPU      0.76s WALL (       1 calls)

     Called by electrons:
     c_bands      :    183.35s CPU    184.87s WALL (      10 calls)
     sum_band     :     23.48s CPU     23.79s WALL (      10 calls)
     v_of_rho     :      0.38s CPU      0.39s WALL (      10 calls)
     newd         :      0.98s CPU      1.00s WALL (      10 calls)
     PAW_pot      :      0.88s CPU      0.89s WALL (      10 calls)
     mix_rho      :      0.08s CPU      0.08s WALL (      10 calls)

     Called by c_bands:
     init_us_2    :      1.82s CPU      1.84s WALL (     460 calls)
     cegterg      :    166.16s CPU    167.56s WALL (     200 calls)

     Called by *egterg:
     cdiaghg      :     31.96s CPU     32.08s WALL (    1064 calls)
     h_psi        :     92.89s CPU     94.09s WALL (    1104 calls)
     s_psi        :      8.66s CPU      8.69s WALL (    1104 calls)
     g_psi        :      0.34s CPU      0.34s WALL (     884 calls)

     Called by h_psi:
     h_psi:calbec :      9.28s CPU      9.33s WALL (    1104 calls)
     vloc_psi     :     73.91s CPU     75.01s WALL (    1104 calls)
     add_vuspsi   :      8.66s CPU      8.69s WALL (    1104 calls)

     General routines
     calbec       :     21.46s CPU     21.55s WALL (    1404 calls)
     fft          :      0.27s CPU      0.28s WALL (     154 calls)
     ffts         :      0.06s CPU      0.16s WALL (      20 calls)
     fftw         :     82.85s CPU     84.09s WALL (  172870 calls)
     interpolate  :      0.06s CPU      0.16s WALL (      10 calls)
 
     Parallel routines
     fft_scatt_xy :     10.26s CPU     10.39s WALL (  173044 calls)
     fft_scatt_yz :     22.16s CPU     22.50s WALL (  173044 calls)
 
     PWSCF        :   4m 8.36s CPU   4m15.37s WALL

 
   This run was terminated on:  17:36:15   2Aug2021            

=------------------------------------------------------------------------------=
   JOB DONE.
=------------------------------------------------------------------------------=
