
     Program PWSCF v.6.7MaX starts on  2Aug2021 at 17:20:56 

     This program is part of the open-source Quantum ESPRESSO suite
     for quantum simulation of materials; please cite
         "P. Giannozzi et al., J. Phys.:Condens. Matter 21 395502 (2009);
         "P. Giannozzi et al., J. Phys.:Condens. Matter 29 465901 (2017);
          URL http://www.quantum-espresso.org", 
     in publications or presentations arising from this work. More details at
     http://www.quantum-espresso.org/quote

     Parallel version (MPI), running on    48 processors

     MPI processes distributed on     2 nodes
     K-points division:     npool     =       2
     R & G space division:  proc/nbgrp/npool/nimage =      24
     Waiting for input...
     Reading input from standard input
Warning: card &CELL ignored
Warning: card CELL_DYNAMICS             = 'BFGS', ignored
Warning: card PRESS                     = '0.0', ignored
Warning: card PRESS_CONV_THR            = '0.5', ignored
Warning: card / ignored
     Message from routine read_cards :
     DEPRECATED: no units specified in CELL_PARAMETERS card

     Current dimensions of program PWSCF are:
     Max number of different atomic species (ntypx) = 10
     Max number of k-points (npk) =  40000
     Max angular momentum in pseudopotentials (lmaxx) =  3
     Message from routine cell_base_init:
     DEPRECATED: use true lattice parameter, not A to a.u. conversion factor
 end of file reached, closing tag not found
     file Er.pbe-spdn-kjpaw_psl.1.0.0.UPF: wavefunction(s)  6S 5D renormalized
     file Br.pbe-dn-kjpaw_psl.1.0.0.UPF: wavefunction(s)  4S 4P 3D renormalized

     Subspace diagonalization in iterative solution of the eigenvalue problem:
     a serial algorithm will be used

     Found symmetry operation: I + ( -0.5000 -0.5000  0.0000)
     This is a supercell, fractional translations are disabled
     Message from routine setup:
     using ibrav=0 with symmetry is DISCOURAGED, use correct ibrav instead
 
     Parallelization info
     --------------------
     sticks:   dense  smooth     PW     G-vecs:    dense   smooth      PW
     Min         494     395    107                29013    20763    2953
     Max         496     396    108                29014    20766    2957
     Sum       11877    9495   2585               696327   498349   70921
 


     bravais-lattice index     =            0
     lattice parameter (alat)  =       1.8897  a.u.
     unit-cell volume          =    3688.3023 (a.u.)^3
     number of atoms/cell      =           20
     number of atomic types    =            3
     number of electrons       =       244.00
     number of Kohn-Sham states=          146
     kinetic-energy cutoff     =     100.0000  Ry
     charge density cutoff     =     500.0000  Ry
     scf convergence threshold =      1.0E-08
     mixing beta               =       0.4000
     number of iterations used =            8  plain     mixing
     Exchange-correlation= SLA  PW   PBX  PBC
                           (   1   4   3   4   0   0   0)

     celldm(1)=   1.889726  celldm(2)=   0.000000  celldm(3)=   0.000000
     celldm(4)=   0.000000  celldm(5)=   0.000000  celldm(6)=   0.000000

     crystal axes: (cart. coord. in units of alat)
               a(1) = (   6.967356   0.000000   0.000000 )  
               a(2) = (   0.000000  11.998880   0.000000 )  
               a(3) = (  -2.324723   0.000000   6.537643 )  

     reciprocal axes: (cart. coord. in units 2 pi/alat)
               b(1) = (  0.143526  0.000000  0.051037 )  
               b(2) = (  0.000000  0.083341  0.000000 )  
               b(3) = (  0.000000  0.000000  0.152960 )  


     PseudoPot. # 1 for Li read from file:
     /central/groups/SeeGroup/qe_pseudopotentials/Li.pbe-s-kjpaw_psl.1.0.0.UPF
     MD5 check sum: cc502796ee09d8b62ac346ee26e59beb
     Pseudo is Projector augmented-wave, Zval =  3.0
     Generated using &quot;atomic&quot; code by A. Dal Corso  v.6.3
     Shape of augmentation charge: PSQ
     Using radial grid of 1017 points,  4 beta functions with: 
                l(1) =   0
                l(2) =   0
                l(3) =   1
                l(4) =   1
     Q(r) pseudized with 0 coefficients 


     PseudoPot. # 2 for Er read from file:
     /central/groups/SeeGroup/qe_pseudopotentials/Er.pbe-spdn-kjpaw_psl.1.0.0.UPF
     MD5 check sum: a923254af2aef992cff3e18bc73f2922
     Pseudo is Projector augmented-wave + core cor, Zval = 11.0
     Generated using &quot;atomic&quot; code by A. Dal Corso  v.6.2.2
     Shape of augmentation charge: PSQ
     Using radial grid of 1267 points,  6 beta functions with: 
                l(1) =   0
                l(2) =   0
                l(3) =   1
                l(4) =   1
                l(5) =   2
                l(6) =   2
     Q(r) pseudized with 0 coefficients 


     PseudoPot. # 3 for Br read from file:
     /central/groups/SeeGroup/qe_pseudopotentials/Br.pbe-dn-kjpaw_psl.1.0.0.UPF
     MD5 check sum: 4ca4ebabfd6065c7bb707b2ebe99e9b3
     Pseudo is Projector augmented-wave + core cor, Zval = 17.0
     Generated using &quot;atomic&quot; code by A. Dal Corso  v.6.3
     Shape of augmentation charge: PSQ
     Using radial grid of 1213 points,  6 beta functions with: 
                l(1) =   0
                l(2) =   0
                l(3) =   1
                l(4) =   1
                l(5) =   2
                l(6) =   2
     Q(r) pseudized with 0 coefficients 


     atomic species   valence    mass     pseudopotential
        Li             3.00     6.94100     Li( 1.00)
        Er            11.00   167.25900     Er( 1.00)
        Br            17.00    79.90400     Br( 1.00)

      2 Sym. Ops. (no inversion) found



   Cartesian axes

     site n.     atom                  positions (alat units)
         1           Li  tau(   1) = (   3.4836780   9.9564306   0.0000000  )
         2           Li  tau(   2) = (   3.4836780   2.0173957   0.0000000  )
         3           Li  tau(   3) = (   2.3213165   7.8846440   3.2688215  )
         4           Li  tau(   4) = (   0.0000000   3.9569906   0.0000000  )
         5           Li  tau(   5) = (   0.0000000   8.0168357   0.0000000  )
         6           Li  tau(   6) = (  -1.1623615   1.8852040   3.2688215  )
         7           Er  tau(   7) = (   3.4836780   5.9699947   0.0000000  )
         8           Er  tau(   8) = (   0.0000000  11.9694347   0.0000000  )
         9           Br  tau(   9) = (   3.4471523   9.9581465   5.0158758  )
        10           Br  tau(  10) = (   3.5847273   1.9854607   4.9258002  )
        11           Br  tau(  11) = (   1.0579057   1.9854607   1.6118428  )
        12           Br  tau(  12) = (   1.1954807   9.9581465   1.5217672  )
        13           Br  tau(  13) = (  -0.0150075   0.0698395   4.9769442  )
        14           Br  tau(  14) = (   4.6576405   0.0698395   1.5606988  )
        15           Br  tau(  15) = (  -0.0365257   3.9587065   5.0158758  )
        16           Br  tau(  16) = (   0.1010493   7.9849007   4.9258002  )
        17           Br  tau(  17) = (   4.5415837   7.9849007   1.6118428  )
        18           Br  tau(  18) = (   4.6791587   3.9587065   1.5217672  )
        19           Br  tau(  19) = (   3.4686705   6.0692795   4.9769442  )
        20           Br  tau(  20) = (   1.1739625   6.0692795   1.5606988  )

     number of k points=    20  Fermi-Dirac smearing, width (Ry)=  0.0070
                       cart. coord. in units 2pi/alat
        k(    1) = (   0.0000000   0.0000000   0.0000000), wk =   0.0625000
        k(    2) = (   0.0000000   0.0000000   0.0382401), wk =   0.1250000
        k(    3) = (   0.0000000   0.0000000  -0.0764802), wk =   0.0625000
        k(    4) = (   0.0000000  -0.0416706   0.0000000), wk =   0.0625000
        k(    5) = (   0.0000000  -0.0416706   0.0382401), wk =   0.1250000
        k(    6) = (   0.0000000  -0.0416706  -0.0764802), wk =   0.0625000
        k(    7) = (   0.0358816   0.0000000   0.0127592), wk =   0.1250000
        k(    8) = (   0.0358816   0.0000000   0.0509992), wk =   0.1250000
        k(    9) = (   0.0358816   0.0000000  -0.0637210), wk =   0.1250000
        k(   10) = (   0.0358816   0.0000000  -0.0254809), wk =   0.1250000
        k(   11) = (   0.0358816  -0.0416706   0.0127592), wk =   0.1250000
        k(   12) = (   0.0358816  -0.0416706   0.0509992), wk =   0.1250000
        k(   13) = (   0.0358816  -0.0416706  -0.0637210), wk =   0.1250000
        k(   14) = (   0.0358816  -0.0416706  -0.0254809), wk =   0.1250000
        k(   15) = (  -0.0717632   0.0000000  -0.0255183), wk =   0.0625000
        k(   16) = (  -0.0717632   0.0000000   0.0127218), wk =   0.1250000
        k(   17) = (  -0.0717632   0.0000000  -0.1019985), wk =   0.0625000
        k(   18) = (  -0.0717632  -0.0416706  -0.0255183), wk =   0.0625000
        k(   19) = (  -0.0717632  -0.0416706   0.0127218), wk =   0.1250000
        k(   20) = (  -0.0717632  -0.0416706  -0.1019985), wk =   0.0625000

     Dense  grid:   696327 G-vectors     FFT dimensions: (  96, 162,  96)

     Smooth grid:   498349 G-vectors     FFT dimensions: (  90, 150,  90)

     Estimated max dynamical RAM per process >     147.86 MB

     Estimated total dynamical RAM >       6.93 GB

     Initial potential from superposition of free atoms

     starting charge  243.93496, renormalised to  244.00000
     Starting wfcs are  164 randomized atomic wfcs
     Checking if some PAW data can be deallocated... 

     total cpu time spent up to now is        6.3 secs

     Self-consistent Calculation

     iteration #  1     ecut=   100.00 Ry     beta= 0.40
     Davidson diagonalization with overlap
     ethr =  1.00E-02,  avg # of iterations =  5.3

     Threshold (ethr) on eigenvalues was too large:
     Diagonalizing with lowered threshold

     Davidson diagonalization with overlap
     ethr =  1.17E-04,  avg # of iterations =  9.0

     total cpu time spent up to now is       36.6 secs

     total energy              =   -6740.52449531 Ry
     estimated scf accuracy    <       0.28230089 Ry

     iteration #  2     ecut=   100.00 Ry     beta= 0.40
     Davidson diagonalization with overlap
     ethr =  1.16E-04,  avg # of iterations =  2.0

     total cpu time spent up to now is       48.0 secs

     total energy              =   -6740.55052941 Ry
     estimated scf accuracy    <       0.03926239 Ry

     iteration #  3     ecut=   100.00 Ry     beta= 0.40
     Davidson diagonalization with overlap
     ethr =  1.61E-05,  avg # of iterations =  6.4

     total cpu time spent up to now is       62.9 secs

     total energy              =   -6740.55560068 Ry
     estimated scf accuracy    <       0.00552864 Ry

     iteration #  4     ecut=   100.00 Ry     beta= 0.40
     Davidson diagonalization with overlap
     ethr =  2.27E-06,  avg # of iterations =  8.1

     total cpu time spent up to now is       78.4 secs

     total energy              =   -6740.55627757 Ry
     estimated scf accuracy    <       0.00075280 Ry

     iteration #  5     ecut=   100.00 Ry     beta= 0.40
     Davidson diagonalization with overlap
     ethr =  3.09E-07,  avg # of iterations =  2.0

     total cpu time spent up to now is       89.4 secs

     total energy              =   -6740.55640544 Ry
     estimated scf accuracy    <       0.00016195 Ry

     iteration #  6     ecut=   100.00 Ry     beta= 0.40
     Davidson diagonalization with overlap
     ethr =  6.64E-08,  avg # of iterations =  2.0

     total cpu time spent up to now is      100.5 secs

     total energy              =   -6740.55642197 Ry
     estimated scf accuracy    <       0.00003130 Ry

     iteration #  7     ecut=   100.00 Ry     beta= 0.40
     Davidson diagonalization with overlap
     ethr =  1.28E-08,  avg # of iterations =  2.0

     total cpu time spent up to now is      111.5 secs

     total energy              =   -6740.55642358 Ry
     estimated scf accuracy    <       0.00000115 Ry

     iteration #  8     ecut=   100.00 Ry     beta= 0.40
     Davidson diagonalization with overlap
     ethr =  4.70E-10,  avg # of iterations =  2.0

     total cpu time spent up to now is      123.2 secs

     total energy              =   -6740.55642369 Ry
     estimated scf accuracy    <       0.00000013 Ry

     iteration #  9     ecut=   100.00 Ry     beta= 0.40
     Davidson diagonalization with overlap
     ethr =  5.45E-11,  avg # of iterations =  2.1

     total cpu time spent up to now is      134.3 secs

     total energy              =   -6740.55642371 Ry
     estimated scf accuracy    <       0.00000001 Ry

     iteration # 10     ecut=   100.00 Ry     beta= 0.40
     Davidson diagonalization with overlap
     ethr =  4.26E-12,  avg # of iterations =  2.5

     total cpu time spent up to now is      146.3 secs

     End of self-consistent calculation

          k = 0.0000 0.0000 0.0000 ( 62259 PWs)   bands (ev):

   -56.2783 -56.2783 -56.2783 -56.2783 -56.2754 -56.2754 -56.2754 -56.2754
   -56.2606 -56.2606 -56.2606 -56.2606 -56.2555 -56.2555 -56.2554 -56.2554
   -56.2530 -56.2530 -56.2530 -56.2530 -56.2395 -56.2394 -56.2394 -56.2394
   -56.2273 -56.2273 -56.2273 -56.2273 -56.2237 -56.2237 -56.2237 -56.2236
   -56.2127 -56.2126 -56.2126 -56.2126 -56.2097 -56.2097 -56.2097 -56.2097
   -56.1945 -56.1945 -56.1945 -56.1944 -56.1935 -56.1935 -56.1935 -56.1935
   -56.1926 -56.1925 -56.1925 -56.1925 -56.1864 -56.1864 -56.1864 -56.1864
   -56.1835 -56.1835 -56.1834 -56.1834 -46.9319 -46.9318 -42.0673 -42.0673
   -41.7986 -41.7986 -41.7701 -41.7701 -20.7598 -20.7598 -20.7545 -20.7544
   -20.7544 -20.7542 -10.7220 -10.5410 -10.3949 -10.2884 -10.2787 -10.2694
   -10.2368 -10.2321 -10.2245 -10.1601 -10.1547 -10.1289  -0.1684  -0.1594
     0.2178   0.2441   0.2632   0.4074   0.4549   0.6220   0.6722   0.7409
     0.8620   0.8623   0.8730   0.9981   1.1249   1.2410   1.2641   1.2677
     1.2727   1.4826   1.5251   1.6949   1.7400   1.9379   1.9803   2.0167
     2.0551   2.0729   2.1869   2.2404   2.3320   2.4621   2.5279   2.5280
     2.5729   2.5791   7.0473   7.3028   7.4452   7.4652   7.4669   7.5186
     7.5473   8.7248   8.7424   8.8087   9.1067   9.1638   9.3652   9.3990
     9.4759   9.7239   9.9172  10.3106  10.3252  10.3770  10.6701  10.8571
    10.9490  11.1005

          k = 0.0000 0.0000 0.0382 ( 62261 PWs)   bands (ev):

   -56.2783 -56.2783 -56.2783 -56.2783 -56.2754 -56.2754 -56.2754 -56.2754
   -56.2606 -56.2606 -56.2606 -56.2606 -56.2555 -56.2555 -56.2554 -56.2554
   -56.2530 -56.2530 -56.2530 -56.2530 -56.2394 -56.2394 -56.2394 -56.2394
   -56.2273 -56.2273 -56.2273 -56.2273 -56.2237 -56.2237 -56.2237 -56.2236
   -56.2126 -56.2126 -56.2126 -56.2126 -56.2097 -56.2097 -56.2097 -56.2097
   -56.1945 -56.1945 -56.1945 -56.1944 -56.1935 -56.1935 -56.1935 -56.1935
   -56.1926 -56.1925 -56.1925 -56.1925 -56.1864 -56.1864 -56.1864 -56.1864
   -56.1835 -56.1835 -56.1834 -56.1834 -46.9319 -46.9318 -42.0673 -42.0673
   -41.7986 -41.7986 -41.7701 -41.7701 -20.7599 -20.7598 -20.7545 -20.7545
   -20.7544 -20.7542 -10.6760 -10.5062 -10.3757 -10.3107 -10.2928 -10.2872
   -10.2562 -10.2408 -10.2227 -10.1774 -10.1660 -10.1330  -0.0739   0.0184
     0.2528   0.2909   0.3279   0.3695   0.4409   0.5133   0.6812   0.8176
     0.8236   0.9410   0.9502   1.0450   1.0733   1.1989   1.2776   1.3099
     1.4260   1.4433   1.4493   1.6094   1.7849   1.9427   1.9535   2.0223
     2.0516   2.0971   2.1305   2.1643   2.2480   2.2503   2.3215   2.4584
     2.4937   2.5026   7.1690   7.2666   7.3118   7.3847   7.4916   7.5468
     8.0630   8.8003   8.8543   8.8823   9.1496   9.3127   9.3395   9.5165
     9.7849   9.8665  10.1255  10.2130  10.3907  10.6660  10.7025  10.8513
    10.9567  10.9646

          k = 0.0000 0.0000-0.0765 ( 62272 PWs)   bands (ev):

   -56.2783 -56.2783 -56.2783 -56.2783 -56.2754 -56.2754 -56.2754 -56.2754
   -56.2606 -56.2606 -56.2606 -56.2606 -56.2555 -56.2554 -56.2554 -56.2554
   -56.2530 -56.2530 -56.2530 -56.2530 -56.2394 -56.2394 -56.2394 -56.2394
   -56.2273 -56.2273 -56.2273 -56.2273 -56.2237 -56.2237 -56.2237 -56.2236
   -56.2126 -56.2126 -56.2126 -56.2126 -56.2097 -56.2097 -56.2097 -56.2097
   -56.1945 -56.1945 -56.1945 -56.1944 -56.1935 -56.1935 -56.1935 -56.1935
   -56.1925 -56.1925 -56.1925 -56.1925 -56.1864 -56.1864 -56.1864 -56.1864
   -56.1835 -56.1835 -56.1834 -56.1834 -46.9319 -46.9318 -42.0673 -42.0673
   -41.7986 -41.7986 -41.7701 -41.7701 -20.7599 -20.7599 -20.7545 -20.7545
   -20.7544 -20.7542 -10.6107 -10.4580 -10.3800 -10.3447 -10.3197 -10.2850
   -10.2727 -10.2580 -10.2408 -10.1830 -10.1632 -10.1421   0.0249   0.1834
     0.1909   0.2487   0.3938   0.4981   0.5828   0.6733   0.6853   0.7347
     0.7823   0.9491   0.9903   1.0446   1.0948   1.2084   1.2706   1.3601
     1.3881   1.4542   1.4661   1.5321   1.6689   1.7953   1.8867   1.8996
     1.9535   2.0696   2.1216   2.1330   2.1438   2.2874   2.2984   2.3345
     2.4567   2.4596   7.1907   7.2150   7.2501   7.3270   7.4872   7.5779
     8.6395   8.7930   8.9077   9.0792   9.1933   9.4469   9.8900   9.9484
     9.9577  10.0377  10.0407  10.1871  10.2478  10.3060  10.7759  10.8081
    10.9745  10.9877

          k = 0.0000-0.0417 0.0000 ( 62276 PWs)   bands (ev):

   -56.2783 -56.2783 -56.2783 -56.2783 -56.2754 -56.2754 -56.2754 -56.2754
   -56.2606 -56.2606 -56.2606 -56.2606 -56.2555 -56.2555 -56.2554 -56.2554
   -56.2530 -56.2530 -56.2530 -56.2530 -56.2394 -56.2394 -56.2394 -56.2394
   -56.2273 -56.2273 -56.2273 -56.2273 -56.2237 -56.2237 -56.2237 -56.2236
   -56.2127 -56.2126 -56.2126 -56.2126 -56.2097 -56.2097 -56.2097 -56.2097
   -56.1945 -56.1945 -56.1945 -56.1944 -56.1935 -56.1935 -56.1935 -56.1935
   -56.1926 -56.1925 -56.1925 -56.1925 -56.1864 -56.1864 -56.1864 -56.1864
   -56.1835 -56.1835 -56.1834 -56.1834 -46.9319 -46.9318 -42.0673 -42.0673
   -41.7986 -41.7986 -41.7701 -41.7701 -20.7598 -20.7598 -20.7544 -20.7544
   -20.7543 -20.7543 -10.6538 -10.6538 -10.3176 -10.3176 -10.2896 -10.2896
   -10.1941 -10.1941 -10.1822 -10.1822 -10.1784 -10.1784  -0.1233  -0.1233
     0.1039   0.1039   0.3375   0.3375   0.5098   0.5098   0.7128   0.7128
     0.8485   0.8485   1.0659   1.0659   1.1406   1.1406   1.3232   1.3232
     1.4260   1.4260   1.7542   1.7542   1.8671   1.8671   1.9393   1.9393
     1.9753   1.9753   2.2786   2.2786   2.3260   2.3260   2.4122   2.4123
     2.5464   2.5464   7.2708   7.2708   7.4557   7.4557   7.4804   7.4804
     8.1052   8.1052   8.8894   8.8894   9.0971   9.0971   9.3648   9.3648
     9.5737   9.5738  10.1336  10.1336  10.2460  10.2460  10.8137  10.8137
    11.1256  11.1256

          k = 0.0000-0.0417 0.0382 ( 62256 PWs)   bands (ev):

   -56.2783 -56.2783 -56.2783 -56.2783 -56.2754 -56.2754 -56.2754 -56.2754
   -56.2606 -56.2606 -56.2606 -56.2606 -56.2555 -56.2555 -56.2554 -56.2554
   -56.2530 -56.2530 -56.2530 -56.2530 -56.2394 -56.2394 -56.2394 -56.2394
   -56.2273 -56.2273 -56.2273 -56.2273 -56.2237 -56.2237 -56.2237 -56.2236
   -56.2126 -56.2126 -56.2126 -56.2126 -56.2097 -56.2097 -56.2097 -56.2097
   -56.1945 -56.1945 -56.1945 -56.1944 -56.1935 -56.1935 -56.1935 -56.1935
   -56.1926 -56.1925 -56.1925 -56.1925 -56.1864 -56.1864 -56.1864 -56.1864
   -56.1835 -56.1835 -56.1834 -56.1834 -46.9319 -46.9318 -42.0673 -42.0673
   -41.7986 -41.7986 -41.7701 -41.7701 -20.7599 -20.7598 -20.7545 -20.7544
   -20.7543 -20.7543 -10.6116 -10.6116 -10.3253 -10.3253 -10.2974 -10.2973
   -10.2110 -10.2110 -10.2068 -10.2068 -10.1702 -10.1702  -0.0308  -0.0308
     0.2269   0.2269   0.3647   0.3647   0.4742   0.4742   0.6043   0.6043
     0.9317   0.9317   1.0437   1.0437   1.2372   1.2372   1.3497   1.3497
     1.5499   1.5499   1.6621   1.6621   1.7789   1.7789   1.8793   1.8793
     1.9703   1.9703   2.1521   2.1521   2.2619   2.2619   2.3654   2.3654
     2.4373   2.4373   7.3290   7.3290   7.3772   7.3772   7.4407   7.4407
     8.4393   8.4393   8.9322   8.9322   9.2531   9.2532   9.6346   9.6346
     9.8919   9.8919   9.9498   9.9498  10.4887  10.4887  10.5673  10.5673
    10.9331  10.9332

          k = 0.0000-0.0417-0.0765 ( 62320 PWs)   bands (ev):

   -56.2783 -56.2783 -56.2783 -56.2783 -56.2754 -56.2754 -56.2754 -56.2754
   -56.2606 -56.2606 -56.2606 -56.2606 -56.2555 -56.2555 -56.2554 -56.2554
   -56.2530 -56.2530 -56.2530 -56.2530 -56.2394 -56.2394 -56.2394 -56.2394
   -56.2273 -56.2273 -56.2273 -56.2273 -56.2237 -56.2237 -56.2237 -56.2236
   -56.2126 -56.2126 -56.2126 -56.2126 -56.2097 -56.2097 -56.2097 -56.2097
   -56.1945 -56.1945 -56.1945 -56.1944 -56.1935 -56.1935 -56.1935 -56.1935
   -56.1926 -56.1925 -56.1925 -56.1925 -56.1864 -56.1864 -56.1864 -56.1864
   -56.1835 -56.1835 -56.1834 -56.1834 -46.9319 -46.9318 -42.0673 -42.0673
   -41.7986 -41.7986 -41.7701 -41.7701 -20.7599 -20.7599 -20.7545 -20.7545
   -20.7543 -20.7543 -10.5507 -10.5507 -10.3689 -10.3689 -10.3000 -10.3000
   -10.2327 -10.2327 -10.1934 -10.1934 -10.1833 -10.1833   0.0538   0.0538
     0.2425   0.2425   0.3734   0.3734   0.6018   0.6018   0.7466   0.7467
     0.9808   0.9808   0.9842   0.9842   1.2420   1.2420   1.2462   1.2462
     1.4911   1.4911   1.5594   1.5594   1.8054   1.8054   1.8990   1.8990
     1.9836   1.9836   1.9970   1.9970   2.1974   2.1974   2.2921   2.2921
     2.3949   2.3949   7.2830   7.2830   7.3440   7.3440   7.4705   7.4706
     8.5949   8.5949   9.2057   9.2057   9.4974   9.4974   9.7994   9.7994
    10.0163  10.0164  10.0197  10.0197  10.5280  10.5280  10.5861  10.5861
    11.1799  11.1800

          k = 0.0359 0.0000 0.0128 ( 62298 PWs)   bands (ev):

   -56.2783 -56.2783 -56.2783 -56.2783 -56.2754 -56.2754 -56.2754 -56.2754
   -56.2606 -56.2606 -56.2606 -56.2606 -56.2555 -56.2555 -56.2554 -56.2554
   -56.2530 -56.2530 -56.2530 -56.2530 -56.2394 -56.2394 -56.2394 -56.2394
   -56.2273 -56.2273 -56.2273 -56.2273 -56.2237 -56.2237 -56.2237 -56.2236
   -56.2126 -56.2126 -56.2126 -56.2126 -56.2097 -56.2097 -56.2097 -56.2097
   -56.1945 -56.1945 -56.1945 -56.1944 -56.1935 -56.1935 -56.1935 -56.1935
   -56.1926 -56.1925 -56.1925 -56.1925 -56.1864 -56.1864 -56.1864 -56.1864
   -56.1835 -56.1835 -56.1834 -56.1834 -46.9319 -46.9318 -42.0673 -42.0673
   -41.7986 -41.7986 -41.7701 -41.7701 -20.7598 -20.7598 -20.7545 -20.7545
   -20.7544 -20.7542 -10.6662 -10.5050 -10.3762 -10.3329 -10.2979 -10.2759
   -10.2452 -10.2428 -10.2191 -10.1895 -10.1538 -10.1406  -0.0910   0.0484
     0.2765   0.2776   0.3455   0.3950   0.4502   0.5314   0.7032   0.7568
     0.8333   0.8417   0.8933   0.9685   1.0404   1.1338   1.3526   1.3626
     1.4024   1.5083   1.6305   1.6863   1.8123   1.8441   1.9286   2.0103
     2.0108   2.0942   2.1330   2.1502   2.2267   2.2399   2.3250   2.4733
     2.4847   2.5245   7.1628   7.3371   7.3865   7.3930   7.4226   7.4488
     8.0606   8.8368   8.9055   8.9708   9.0321   9.0395   9.4186   9.6975
     9.7072   9.9484  10.0906  10.2122  10.3966  10.5396  10.6342  10.8058
    10.9858  11.0959

          k = 0.0359 0.0000 0.0510 ( 62291 PWs)   bands (ev):

   -56.2783 -56.2783 -56.2783 -56.2783 -56.2754 -56.2754 -56.2754 -56.2754
   -56.2606 -56.2606 -56.2606 -56.2606 -56.2555 -56.2555 -56.2554 -56.2554
   -56.2530 -56.2530 -56.2530 -56.2530 -56.2394 -56.2394 -56.2394 -56.2394
   -56.2273 -56.2273 -56.2273 -56.2273 -56.2237 -56.2237 -56.2237 -56.2236
   -56.2126 -56.2126 -56.2126 -56.2126 -56.2097 -56.2097 -56.2097 -56.2097
   -56.1945 -56.1945 -56.1945 -56.1944 -56.1935 -56.1935 -56.1935 -56.1935
   -56.1925 -56.1925 -56.1925 -56.1925 -56.1864 -56.1864 -56.1864 -56.1864
   -56.1835 -56.1835 -56.1834 -56.1834 -46.9319 -46.9318 -42.0673 -42.0673
   -41.7986 -41.7986 -41.7701 -41.7701 -20.7599 -20.7598 -20.7545 -20.7545
   -20.7544 -20.7542 -10.6026 -10.4634 -10.3647 -10.3407 -10.3353 -10.2802
   -10.2676 -10.2531 -10.2513 -10.1964 -10.1608 -10.1420   0.0744   0.1287
     0.2323   0.2711   0.4712   0.4874   0.5451   0.5785   0.6391   0.7417
     0.7527   0.8928   1.0482   1.0530   1.0568   1.1628   1.2742   1.2860
     1.3419   1.4330   1.5800   1.6898   1.7575   1.8680   1.9339   1.9583
     1.9952   2.0006   2.0741   2.1401   2.2178   2.2243   2.2315   2.2592
     2.3702   2.4908   7.1910   7.2424   7.3562   7.3673   7.4684   7.4792
     8.6449   8.6852   8.9581   9.0077   9.0235   9.5109   9.5679   9.7950
     9.8774  10.0097  10.1214  10.2479  10.2541  10.5100  10.5605  10.7945
    11.0901  11.3001

          k = 0.0359 0.0000-0.0637 ( 62280 PWs)   bands (ev):

   -56.2783 -56.2783 -56.2783 -56.2783 -56.2754 -56.2754 -56.2754 -56.2754
   -56.2606 -56.2606 -56.2606 -56.2606 -56.2555 -56.2555 -56.2554 -56.2554
   -56.2530 -56.2530 -56.2530 -56.2530 -56.2394 -56.2394 -56.2394 -56.2394
   -56.2273 -56.2273 -56.2273 -56.2273 -56.2237 -56.2237 -56.2237 -56.2236
   -56.2126 -56.2126 -56.2126 -56.2126 -56.2097 -56.2097 -56.2097 -56.2097
   -56.1945 -56.1945 -56.1945 -56.1944 -56.1935 -56.1935 -56.1935 -56.1935
   -56.1926 -56.1925 -56.1925 -56.1925 -56.1864 -56.1864 -56.1864 -56.1864
   -56.1835 -56.1835 -56.1834 -56.1834 -46.9319 -46.9318 -42.0673 -42.0673
   -41.7986 -41.7986 -41.7701 -41.7701 -20.7599 -20.7599 -20.7546 -20.7545
   -20.7544 -20.7542 -10.5738 -10.4328 -10.3653 -10.3601 -10.3124 -10.2989
   -10.2939 -10.2614 -10.2513 -10.1753 -10.1701 -10.1660  -0.0095  -0.0070
     0.2106   0.2212   0.3970   0.4133   0.4796   0.5516   0.5762   0.6656
     0.7169   0.9208   1.0846   1.1139   1.1883   1.2595   1.3867   1.4556
     1.4563   1.6367   1.7121   1.7139   1.7648   1.8637   1.8862   1.8912
     1.9586   1.9902   2.0638   2.1412   2.1930   2.2611   2.2827   2.2983
     2.4245   2.4733   7.1139   7.1972   7.2688   7.2881   7.3747   7.4558
     8.6616   8.7250   9.0947   9.1342   9.1701   9.2395   9.5178   9.5408
     9.6757   9.8374   9.8864  10.0008  10.0437  10.1097  10.3262  10.4585
    11.0425  11.2084

          k = 0.0359 0.0000-0.0255 ( 62285 PWs)   bands (ev):

   -56.2783 -56.2783 -56.2783 -56.2783 -56.2754 -56.2754 -56.2754 -56.2754
   -56.2606 -56.2606 -56.2606 -56.2606 -56.2555 -56.2555 -56.2554 -56.2554
   -56.2530 -56.2530 -56.2530 -56.2530 -56.2394 -56.2394 -56.2394 -56.2394
   -56.2273 -56.2273 -56.2273 -56.2273 -56.2237 -56.2237 -56.2237 -56.2236
   -56.2126 -56.2126 -56.2126 -56.2126 -56.2097 -56.2097 -56.2097 -56.2097
   -56.1945 -56.1945 -56.1945 -56.1944 -56.1935 -56.1935 -56.1935 -56.1935
   -56.1926 -56.1925 -56.1925 -56.1925 -56.1864 -56.1864 -56.1864 -56.1864
   -56.1835 -56.1835 -56.1834 -56.1834 -46.9319 -46.9318 -42.0673 -42.0673
   -41.7986 -41.7986 -41.7701 -41.7701 -20.7598 -20.7598 -20.7545 -20.7545
   -20.7544 -20.7542 -10.6485 -10.4866 -10.3645 -10.3167 -10.3096 -10.2793
   -10.2678 -10.2457 -10.2283 -10.1814 -10.1632 -10.1565  -0.1334  -0.0266
     0.1926   0.2546   0.2955   0.3494   0.4005   0.4206   0.5385   0.6261
     0.7240   0.8984   1.0534   1.0980   1.2391   1.3161   1.3689   1.4435
     1.5812   1.6835   1.7004   1.7669   1.7917   1.8049   1.8513   1.9398
     2.0081   2.0614   2.1208   2.1445   2.3152   2.3387   2.3992   2.4137
     2.4654   2.5376   7.1076   7.2345   7.2572   7.3407   7.3689   7.4202
     8.0919   8.7182   8.9217   9.0135   9.1803   9.2720   9.4226   9.5259
     9.5605   9.7528   9.7832   9.9350   9.9647  10.2076  10.2309  10.3115
    10.8486  11.1901

          k = 0.0359-0.0417 0.0128 ( 62270 PWs)   bands (ev):

   -56.2783 -56.2783 -56.2783 -56.2783 -56.2754 -56.2754 -56.2754 -56.2754
   -56.2606 -56.2606 -56.2606 -56.2606 -56.2555 -56.2555 -56.2554 -56.2554
   -56.2530 -56.2530 -56.2530 -56.2530 -56.2394 -56.2394 -56.2394 -56.2394
   -56.2273 -56.2273 -56.2273 -56.2273 -56.2237 -56.2237 -56.2237 -56.2236
   -56.2126 -56.2126 -56.2126 -56.2126 -56.2097 -56.2097 -56.2097 -56.2097
   -56.1945 -56.1945 -56.1945 -56.1944 -56.1935 -56.1935 -56.1935 -56.1935
   -56.1926 -56.1925 -56.1925 -56.1925 -56.1864 -56.1864 -56.1864 -56.1864
   -56.1835 -56.1835 -56.1834 -56.1834 -46.9319 -46.9318 -42.0673 -42.0673
   -41.7986 -41.7986 -41.7701 -41.7701 -20.7598 -20.7598 -20.7545 -20.7545
   -20.7543 -20.7543 -10.6055 -10.6055 -10.3192 -10.3192 -10.3052 -10.3052
   -10.2329 -10.2329 -10.1988 -10.1988 -10.1608 -10.1608  -0.0280  -0.0280
     0.2419   0.2419   0.3210   0.3210   0.5293   0.5293   0.5941   0.5941
     0.8842   0.8842   1.0601   1.0601   1.2753   1.2753   1.3771   1.3771
     1.4899   1.4899   1.6719   1.6719   1.7171   1.7171   1.8666   1.8666
     2.0339   2.0339   2.1259   2.1259   2.3059   2.3059   2.3460   2.3460
     2.4485   2.4485   7.3348   7.3348   7.3958   7.3958   7.4104   7.4104
     8.4126   8.4126   9.0228   9.0228   9.1321   9.1321   9.6073   9.6073
     9.8536   9.8536  10.1429  10.1429  10.3822  10.3822  10.5267  10.5267
    11.0643  11.0643

          k = 0.0359-0.0417 0.0510 ( 62318 PWs)   bands (ev):

   -56.2783 -56.2783 -56.2783 -56.2783 -56.2754 -56.2754 -56.2754 -56.2754
   -56.2606 -56.2606 -56.2606 -56.2606 -56.2555 -56.2555 -56.2554 -56.2554
   -56.2530 -56.2530 -56.2530 -56.2530 -56.2394 -56.2394 -56.2394 -56.2394
   -56.2273 -56.2273 -56.2273 -56.2273 -56.2237 -56.2237 -56.2237 -56.2236
   -56.2126 -56.2126 -56.2126 -56.2126 -56.2097 -56.2097 -56.2097 -56.2097
   -56.1945 -56.1945 -56.1945 -56.1944 -56.1935 -56.1935 -56.1935 -56.1935
   -56.1925 -56.1925 -56.1925 -56.1925 -56.1864 -56.1864 -56.1864 -56.1864
   -56.1835 -56.1835 -56.1834 -56.1834 -46.9319 -46.9318 -42.0673 -42.0673
   -41.7986 -41.7986 -41.7701 -41.7701 -20.7599 -20.7598 -20.7545 -20.7545
   -20.7543 -20.7543 -10.5494 -10.5494 -10.3424 -10.3424 -10.3082 -10.3082
   -10.2505 -10.2505 -10.2242 -10.2242 -10.1544 -10.1544   0.0310   0.0311
     0.2887   0.2887   0.4271   0.4271   0.5905   0.5905   0.6807   0.6808
     0.8426   0.8426   1.0094   1.0095   1.1860   1.1860   1.4729   1.4729
     1.5427   1.5427   1.6002   1.6002   1.6668   1.6668   1.8162   1.8162
     1.9582   1.9582   2.1152   2.1152   2.2230   2.2230   2.2876   2.2876
     2.3548   2.3548   7.2891   7.2891   7.3593   7.3593   7.4664   7.4664
     8.5594   8.5594   9.1078   9.1079   9.4928   9.4928   9.8053   9.8053
     9.8703   9.8703  10.1495  10.1495  10.2604  10.2604  10.6052  10.6052
    11.1311  11.1312

          k = 0.0359-0.0417-0.0637 ( 62340 PWs)   bands (ev):

   -56.2783 -56.2783 -56.2783 -56.2783 -56.2754 -56.2754 -56.2754 -56.2754
   -56.2606 -56.2606 -56.2606 -56.2606 -56.2555 -56.2555 -56.2554 -56.2554
   -56.2530 -56.2530 -56.2530 -56.2530 -56.2394 -56.2394 -56.2394 -56.2394
   -56.2273 -56.2273 -56.2273 -56.2273 -56.2237 -56.2237 -56.2237 -56.2236
   -56.2126 -56.2126 -56.2126 -56.2126 -56.2097 -56.2097 -56.2097 -56.2097
   -56.1945 -56.1945 -56.1945 -56.1944 -56.1935 -56.1935 -56.1935 -56.1935
   -56.1926 -56.1925 -56.1925 -56.1925 -56.1864 -56.1864 -56.1864 -56.1864
   -56.1835 -56.1835 -56.1834 -56.1834 -46.9319 -46.9318 -42.0673 -42.0673
   -41.7986 -41.7986 -41.7701 -41.7701 -20.7599 -20.7599 -20.7546 -20.7546
   -20.7543 -20.7543 -10.5190 -10.5190 -10.3603 -10.3603 -10.3174 -10.3174
   -10.2412 -10.2411 -10.2170 -10.2170 -10.1757 -10.1757  -0.1019  -0.1019
     0.3043   0.3043   0.3458   0.3458   0.5425   0.5425   0.6433   0.6433
     0.8764   0.8764   1.1205   1.1205   1.2626   1.2626   1.4530   1.4530
     1.5462   1.5462   1.6267   1.6267   1.7817   1.7817   1.8965   1.8965
     2.0104   2.0104   2.0910   2.0910   2.1794   2.1794   2.2845   2.2845
     2.4249   2.4249   7.1674   7.1674   7.3281   7.3281   7.3995   7.3995
     8.7032   8.7032   9.0405   9.0405   9.2847   9.2847   9.4592   9.4592
     9.6535   9.6535  10.2254  10.2254  10.5300  10.5300  10.7145  10.7145
    10.9104  10.9104

          k = 0.0359-0.0417-0.0255 ( 62302 PWs)   bands (ev):

   -56.2783 -56.2783 -56.2783 -56.2783 -56.2754 -56.2754 -56.2754 -56.2754
   -56.2606 -56.2606 -56.2606 -56.2606 -56.2555 -56.2555 -56.2554 -56.2554
   -56.2530 -56.2530 -56.2530 -56.2530 -56.2394 -56.2394 -56.2394 -56.2394
   -56.2273 -56.2273 -56.2273 -56.2273 -56.2237 -56.2237 -56.2237 -56.2236
   -56.2126 -56.2126 -56.2126 -56.2126 -56.2097 -56.2097 -56.2097 -56.2097
   -56.1945 -56.1945 -56.1945 -56.1944 -56.1935 -56.1935 -56.1935 -56.1935
   -56.1926 -56.1925 -56.1925 -56.1925 -56.1864 -56.1864 -56.1864 -56.1864
   -56.1835 -56.1835 -56.1834 -56.1834 -46.9319 -46.9318 -42.0673 -42.0673
   -41.7986 -41.7986 -41.7701 -41.7701 -20.7598 -20.7598 -20.7545 -20.7545
   -20.7543 -20.7543 -10.5872 -10.5872 -10.3286 -10.3286 -10.2966 -10.2966
   -10.2277 -10.2277 -10.2003 -10.2003 -10.1836 -10.1836  -0.1225  -0.1225
     0.2195   0.2195   0.3154   0.3154   0.4327   0.4327   0.4898   0.4898
     0.9666   0.9666   1.1574   1.1574   1.3670   1.3670   1.4918   1.4919
     1.5180   1.5180   1.6278   1.6279   1.7345   1.7345   1.9271   1.9271
     2.0228   2.0228   2.0944   2.0944   2.3445   2.3445   2.4125   2.4126
     2.4578   2.4578   7.2307   7.2307   7.2918   7.2918   7.3798   7.3798
     8.5277   8.5277   8.8613   8.8613   9.1078   9.1078   9.5568   9.5568
     9.7093   9.7093  10.0802  10.0802  10.1955  10.1955  10.2781  10.2781
    11.0119  11.0119

          k =-0.0718 0.0000-0.0255 ( 62286 PWs)   bands (ev):

   -56.2783 -56.2783 -56.2783 -56.2783 -56.2754 -56.2754 -56.2754 -56.2754
   -56.2606 -56.2606 -56.2606 -56.2606 -56.2555 -56.2554 -56.2554 -56.2554
   -56.2530 -56.2530 -56.2530 -56.2530 -56.2394 -56.2394 -56.2394 -56.2394
   -56.2273 -56.2273 -56.2273 -56.2273 -56.2237 -56.2237 -56.2237 -56.2236
   -56.2126 -56.2126 -56.2126 -56.2126 -56.2097 -56.2097 -56.2097 -56.2097
   -56.1945 -56.1945 -56.1944 -56.1944 -56.1935 -56.1935 -56.1935 -56.1935
   -56.1925 -56.1925 -56.1925 -56.1925 -56.1864 -56.1864 -56.1864 -56.1864
   -56.1835 -56.1835 -56.1834 -56.1834 -46.9319 -46.9318 -42.0673 -42.0673
   -41.7986 -41.7986 -41.7701 -41.7701 -20.7598 -20.7598 -20.7546 -20.7546
   -20.7543 -20.7543 -10.5350 -10.5350 -10.3479 -10.3479 -10.3238 -10.3238
   -10.2701 -10.2701 -10.1918 -10.1918 -10.1607 -10.1607   0.0663   0.0663
     0.3785   0.3785   0.4252   0.4252   0.5085   0.5085   0.7340   0.7340
     0.8375   0.8375   1.0044   1.0044   1.1202   1.1202   1.1471   1.1471
     1.5897   1.5897   1.6747   1.6747   1.7171   1.7171   1.8369   1.8369
     2.0446   2.0446   2.0615   2.0615   2.1976   2.1976   2.3644   2.3644
     2.4208   2.4208   7.2737   7.2737   7.3124   7.3125   7.4277   7.4277
     8.7479   8.7479   8.9075   8.9075   9.2885   9.2885   9.8003   9.8003
    10.0615  10.0615  10.1568  10.1568  10.3745  10.3745  10.7165  10.7165
    11.1704  11.1705

          k =-0.0718 0.0000 0.0127 ( 62298 PWs)   bands (ev):

   -56.2783 -56.2783 -56.2783 -56.2783 -56.2754 -56.2754 -56.2754 -56.2754
   -56.2606 -56.2606 -56.2606 -56.2606 -56.2555 -56.2555 -56.2554 -56.2554
   -56.2530 -56.2530 -56.2530 -56.2530 -56.2394 -56.2394 -56.2394 -56.2394
   -56.2273 -56.2273 -56.2273 -56.2273 -56.2237 -56.2237 -56.2237 -56.2236
   -56.2126 -56.2126 -56.2126 -56.2126 -56.2097 -56.2097 -56.2097 -56.2097
   -56.1945 -56.1945 -56.1945 -56.1944 -56.1935 -56.1935 -56.1935 -56.1935
   -56.1926 -56.1925 -56.1925 -56.1925 -56.1864 -56.1864 -56.1864 -56.1864
   -56.1835 -56.1835 -56.1834 -56.1834 -46.9319 -46.9318 -42.0673 -42.0673
   -41.7986 -41.7986 -41.7701 -41.7701 -20.7598 -20.7598 -20.7546 -20.7546
   -20.7543 -20.7543 -10.5360 -10.4803 -10.3568 -10.3333 -10.3301 -10.3042
   -10.2979 -10.2797 -10.2210 -10.1894 -10.1720 -10.1610  -0.0928   0.0943
     0.2393   0.3013   0.3714   0.4206   0.4611   0.5342   0.5397   0.6039
     0.7133   0.9313   0.9544   1.1272   1.2311   1.3049   1.3662   1.4509
     1.5118   1.6835   1.6907   1.7282   1.7692   1.7912   1.8425   1.9877
     2.0140   2.0629   2.0807   2.0878   2.1357   2.1960   2.3165   2.3345
     2.3700   2.4782   7.1557   7.2277   7.2640   7.2681   7.3702   7.3858
     8.6350   8.8941   8.9594   9.0585   9.1759   9.3593   9.3730   9.6057
     9.7361   9.7420   9.9005   9.9427  10.1327  10.2231  10.2843  10.4340
    11.0609  11.2132

          k =-0.0718 0.0000-0.1020 ( 62288 PWs)   bands (ev):

   -56.2783 -56.2783 -56.2783 -56.2783 -56.2754 -56.2754 -56.2754 -56.2754
   -56.2606 -56.2606 -56.2606 -56.2606 -56.2555 -56.2555 -56.2554 -56.2554
   -56.2530 -56.2530 -56.2530 -56.2530 -56.2394 -56.2394 -56.2394 -56.2394
   -56.2273 -56.2273 -56.2273 -56.2273 -56.2237 -56.2237 -56.2237 -56.2236
   -56.2126 -56.2126 -56.2126 -56.2126 -56.2097 -56.2097 -56.2097 -56.2097
   -56.1945 -56.1945 -56.1945 -56.1944 -56.1935 -56.1935 -56.1935 -56.1935
   -56.1926 -56.1925 -56.1925 -56.1925 -56.1864 -56.1864 -56.1864 -56.1864
   -56.1835 -56.1835 -56.1834 -56.1834 -46.9319 -46.9318 -42.0673 -42.0673
   -41.7986 -41.7986 -41.7701 -41.7701 -20.7599 -20.7598 -20.7546 -20.7546
   -20.7543 -20.7543 -10.4805 -10.4805 -10.3529 -10.3529 -10.3225 -10.3225
   -10.2766 -10.2766 -10.2273 -10.2273 -10.1725 -10.1725  -0.0784  -0.0784
     0.1875   0.1875   0.3233   0.3233   0.3897   0.3897   0.6077   0.6077
     0.8610   0.8610   1.1776   1.1776   1.2973   1.2973   1.5675   1.5675
     1.6413   1.6413   1.6964   1.6964   1.8206   1.8206   1.8453   1.8453
     2.0434   2.0434   2.0946   2.0946   2.2795   2.2795   2.3078   2.3078
     2.4561   2.4561   7.1507   7.1507   7.2201   7.2201   7.2693   7.2693
     8.6310   8.6310   9.0233   9.0233   9.1838   9.1838   9.3158   9.3158
     9.5680   9.5680   9.7583   9.7583  10.0925  10.0925  10.3979  10.3979
    11.0404  11.0404

          k =-0.0718-0.0417-0.0255 ( 62328 PWs)   bands (ev):

   -56.2783 -56.2783 -56.2783 -56.2783 -56.2754 -56.2754 -56.2754 -56.2754
   -56.2606 -56.2606 -56.2606 -56.2606 -56.2555 -56.2555 -56.2554 -56.2554
   -56.2530 -56.2530 -56.2530 -56.2530 -56.2394 -56.2394 -56.2394 -56.2394
   -56.2273 -56.2273 -56.2273 -56.2273 -56.2237 -56.2237 -56.2237 -56.2236
   -56.2126 -56.2126 -56.2126 -56.2126 -56.2097 -56.2097 -56.2097 -56.2097
   -56.1945 -56.1945 -56.1944 -56.1944 -56.1935 -56.1935 -56.1935 -56.1935
   -56.1926 -56.1925 -56.1925 -56.1925 -56.1864 -56.1864 -56.1864 -56.1864
   -56.1835 -56.1835 -56.1834 -56.1834 -46.9319 -46.9318 -42.0673 -42.0673
   -41.7986 -41.7986 -41.7701 -41.7701 -20.7598 -20.7598 -20.7546 -20.7546
   -20.7543 -20.7543 -10.5270 -10.5270 -10.3910 -10.3910 -10.2879 -10.2879
   -10.2534 -10.2533 -10.2149 -10.2149 -10.1551 -10.1550   0.0168   0.0168
     0.2625   0.2625   0.4765   0.4765   0.6427   0.6428   0.6552   0.6552
     0.9198   0.9198   0.9806   0.9806   1.1996   1.1996   1.3247   1.3247
     1.4962   1.4962   1.5122   1.5122   1.7987   1.7987   1.8379   1.8379
     1.9974   1.9974   2.0770   2.0770   2.1526   2.1526   2.3122   2.3122
     2.4338   2.4338   7.2233   7.2233   7.3574   7.3574   7.4805   7.4805
     8.6072   8.6072   9.3406   9.3407   9.4576   9.4576   9.7269   9.7269
     9.7645   9.7645  10.0825  10.0825  10.6212  10.6212  10.7959  10.7959
    10.9534  10.9534

          k =-0.0718-0.0417 0.0127 ( 62314 PWs)   bands (ev):

   -56.2783 -56.2783 -56.2783 -56.2783 -56.2754 -56.2754 -56.2754 -56.2754
   -56.2606 -56.2606 -56.2606 -56.2606 -56.2555 -56.2555 -56.2554 -56.2554
   -56.2530 -56.2530 -56.2530 -56.2530 -56.2394 -56.2394 -56.2394 -56.2394
   -56.2273 -56.2273 -56.2273 -56.2273 -56.2237 -56.2237 -56.2237 -56.2236
   -56.2126 -56.2126 -56.2126 -56.2126 -56.2097 -56.2097 -56.2097 -56.2097
   -56.1945 -56.1945 -56.1945 -56.1944 -56.1935 -56.1935 -56.1935 -56.1935
   -56.1926 -56.1925 -56.1925 -56.1925 -56.1864 -56.1864 -56.1864 -56.1864
   -56.1835 -56.1835 -56.1834 -56.1834 -46.9319 -46.9318 -42.0673 -42.0673
   -41.7986 -41.7986 -41.7701 -41.7701 -20.7598 -20.7598 -20.7546 -20.7546
   -20.7543 -20.7543 -10.5039 -10.5039 -10.3762 -10.3762 -10.3131 -10.3131
   -10.2535 -10.2535 -10.2177 -10.2177 -10.1664 -10.1664  -0.1074  -0.1074
     0.2947   0.2947   0.3970   0.3970   0.5050   0.5050   0.6448   0.6448
     0.9470   0.9470   1.0696   1.0696   1.1992   1.1992   1.4826   1.4826
     1.5290   1.5290   1.6258   1.6258   1.7479   1.7479   1.9490   1.9490
     2.0525   2.0525   2.0928   2.0928   2.1529   2.1529   2.2653   2.2653
     2.4415   2.4415   7.1380   7.1380   7.3457   7.3457   7.4067   7.4067
     8.7567   8.7567   8.9621   8.9622   9.1950   9.1950   9.4877   9.4877
     9.7392   9.7392  10.1980  10.1980  10.5632  10.5632  10.7890  10.7890
    10.8744  10.8744

          k =-0.0718-0.0417-0.1020 ( 62320 PWs)   bands (ev):

   -56.2783 -56.2783 -56.2783 -56.2783 -56.2754 -56.2754 -56.2754 -56.2754
   -56.2606 -56.2606 -56.2606 -56.2606 -56.2555 -56.2555 -56.2554 -56.2554
   -56.2530 -56.2530 -56.2530 -56.2530 -56.2394 -56.2394 -56.2394 -56.2394
   -56.2273 -56.2273 -56.2273 -56.2273 -56.2237 -56.2237 -56.2237 -56.2236
   -56.2126 -56.2126 -56.2126 -56.2126 -56.2097 -56.2097 -56.2097 -56.2097
   -56.1945 -56.1945 -56.1945 -56.1944 -56.1935 -56.1935 -56.1935 -56.1935
   -56.1926 -56.1925 -56.1925 -56.1925 -56.1864 -56.1864 -56.1864 -56.1864
   -56.1835 -56.1835 -56.1834 -56.1834 -46.9319 -46.9318 -42.0673 -42.0673
   -41.7986 -41.7986 -41.7701 -41.7701 -20.7599 -20.7598 -20.7547 -20.7546
   -20.7543 -20.7543 -10.4659 -10.4659 -10.3872 -10.3872 -10.3270 -10.3270
   -10.2490 -10.2490 -10.2166 -10.2166 -10.1865 -10.1865  -0.2059  -0.2059
     0.2426   0.2426   0.3302   0.3302   0.4934   0.4934   0.6856   0.6856
     0.9556   0.9556   1.1117   1.1117   1.2146   1.2146   1.5198   1.5198
     1.5486   1.5486   1.6822   1.6822   1.7401   1.7401   1.9838   1.9838
     2.1132   2.1132   2.1357   2.1357   2.2725   2.2725   2.3061   2.3062
     2.3667   2.3667   7.0313   7.0313   7.2998   7.2998   7.3555   7.3555
     8.6871   8.6871   8.7787   8.7787   9.1452   9.1452   9.2488   9.2488
     9.7483   9.7483  10.1587  10.1587  10.6117  10.6117  10.7739  10.7739
    10.8714  10.8714

     the Fermi energy is     4.8539 ev

!    total energy              =   -6740.55642372 Ry

     total all-electron energy =   -114993.572381 Ry
     estimated scf accuracy    <          6.0E-10 Ry
     smearing contrib. (-TS)   =      -0.00000000 Ry
     internal energy E=F+TS    =   -6740.55642372 Ry

     The total energy is F=E-TS. E is the sum of the following terms:
     one-electron contribution =   -3515.75002194 Ry
     hartree contribution      =    1687.83022508 Ry
     xc contribution           =    -503.20531479 Ry
     ewald contribution        =   -1690.68325647 Ry
     one-center paw contrib.   =   -2718.74805559 Ry

     convergence has been achieved in  10 iterations

     Forces acting on atoms (cartesian axes, Ry/au):

     atom    1 type  1   force =     0.00000000   -0.00205587    0.00000000
     atom    2 type  1   force =     0.00000000    0.00042896    0.00000000
     atom    3 type  1   force =     0.00000000   -0.00038816    0.00000000
     atom    4 type  1   force =     0.00000000   -0.00205556    0.00000000
     atom    5 type  1   force =     0.00000000    0.00043014    0.00000000
     atom    6 type  1   force =     0.00000000   -0.00038830    0.00000000
     atom    7 type  2   force =     0.00000000    0.00082302    0.00000000
     atom    8 type  2   force =     0.00000000    0.00082041    0.00000000
     atom    9 type  3   force =     0.00090470    0.00148212    0.00389455
     atom   10 type  3   force =     0.00316632   -0.00235370    0.00130678
     atom   11 type  3   force =    -0.00316632   -0.00235370   -0.00130678
     atom   12 type  3   force =    -0.00090470    0.00148212   -0.00389455
     atom   13 type  3   force =    -0.00316888    0.00149242    0.00326034
     atom   14 type  3   force =     0.00316888    0.00149242   -0.00326034
     atom   15 type  3   force =     0.00090655    0.00145463    0.00391043
     atom   16 type  3   force =     0.00316293   -0.00235546    0.00130058
     atom   17 type  3   force =    -0.00316293   -0.00235546   -0.00130058
     atom   18 type  3   force =    -0.00090655    0.00145463   -0.00391043
     atom   19 type  3   force =    -0.00315396    0.00147266    0.00326893
     atom   20 type  3   force =     0.00315396    0.00147266   -0.00326893

     Total force =     0.015612     Total SCF correction =     0.000149


     Computing stress (Cartesian axis) and pressure

          total   stress  (Ry/bohr**3)                   (kbar)     P=       -4.99
  -0.00003704   0.00000000   0.00000130           -5.45        0.00        0.19
   0.00000000  -0.00003854   0.00000000            0.00       -5.67        0.00
   0.00000130   0.00000000  -0.00002608            0.19        0.00       -3.84


     Writing output data file ./pwscf.save/
 
     init_run     :      5.85s CPU      6.07s WALL (       1 calls)
     electrons    :    137.02s CPU    140.25s WALL (       1 calls)
     forces       :      2.60s CPU      2.64s WALL (       1 calls)
     stress       :     20.73s CPU     20.84s WALL (       1 calls)

     Called by init_run:
     wfcinit      :      3.70s CPU      3.85s WALL (       1 calls)
     potinit      :      0.72s CPU      0.73s WALL (       1 calls)
     hinit0       :      0.94s CPU      0.96s WALL (       1 calls)

     Called by electrons:
     c_bands      :    116.39s CPU    118.68s WALL (      11 calls)
     sum_band     :     17.68s CPU     18.16s WALL (      11 calls)
     v_of_rho     :      0.53s CPU      0.54s WALL (      11 calls)
     newd         :      1.43s CPU      1.65s WALL (      11 calls)
     PAW_pot      :      1.00s CPU      1.01s WALL (      11 calls)
     mix_rho      :      0.14s CPU      0.14s WALL (      11 calls)

     Called by c_bands:
     init_us_2    :      1.32s CPU      1.33s WALL (     250 calls)
     cegterg      :    105.74s CPU    107.96s WALL (     110 calls)

     Called by *egterg:
     cdiaghg      :     14.14s CPU     14.33s WALL (     569 calls)
     h_psi        :     60.93s CPU     62.17s WALL (     589 calls)
     s_psi        :      6.14s CPU      6.16s WALL (     589 calls)
     g_psi        :      0.26s CPU      0.26s WALL (     469 calls)

     Called by h_psi:
     h_psi:calbec :      6.73s CPU      6.76s WALL (     589 calls)
     vloc_psi     :     47.24s CPU     47.99s WALL (     589 calls)
     add_vuspsi   :      6.20s CPU      6.22s WALL (     589 calls)

     General routines
     calbec       :     15.01s CPU     15.05s WALL (     749 calls)
     fft          :      0.48s CPU      0.50s WALL (     167 calls)
     ffts         :      0.04s CPU      0.04s WALL (      22 calls)
     fftw         :     51.59s CPU     52.37s WALL (   94396 calls)
     interpolate  :      0.05s CPU      0.05s WALL (      11 calls)
 
     Parallel routines
     fft_scatt_xy :      8.58s CPU      8.70s WALL (   94585 calls)
     fft_scatt_yz :     18.88s CPU     19.17s WALL (   94585 calls)
 
     PWSCF        :   2m47.92s CPU   2m53.31s WALL

 
   This run was terminated on:  17:23:49   2Aug2021            

=------------------------------------------------------------------------------=
   JOB DONE.
=------------------------------------------------------------------------------=
