
     Program PWSCF v.6.7MaX starts on  2Aug2021 at 18: 4:16 

     This program is part of the open-source Quantum ESPRESSO suite
     for quantum simulation of materials; please cite
         "P. Giannozzi et al., J. Phys.:Condens. Matter 21 395502 (2009);
         "P. Giannozzi et al., J. Phys.:Condens. Matter 29 465901 (2017);
          URL http://www.quantum-espresso.org", 
     in publications or presentations arising from this work. More details at
     http://www.quantum-espresso.org/quote

     Parallel version (MPI), running on    48 processors

     MPI processes distributed on     2 nodes
     K-points division:     npool     =       2
     R & G space division:  proc/nbgrp/npool/nimage =      24
     Waiting for input...
     Reading input from standard input
Warning: card &CELL ignored
Warning: card CELL_DYNAMICS             = 'BFGS', ignored
Warning: card PRESS                     = '0.0', ignored
Warning: card PRESS_CONV_THR            = '0.5', ignored
Warning: card / ignored
     Message from routine read_cards :
     DEPRECATED: no units specified in CELL_PARAMETERS card

     Current dimensions of program PWSCF are:
     Max number of different atomic species (ntypx) = 10
     Max number of k-points (npk) =  40000
     Max angular momentum in pseudopotentials (lmaxx) =  3
     Message from routine cell_base_init:
     DEPRECATED: use true lattice parameter, not A to a.u. conversion factor
 end of file reached, closing tag not found
     file Er.pbe-spdn-kjpaw_psl.1.0.0.UPF: wavefunction(s)  6S 5D renormalized
     file Br.pbe-dn-kjpaw_psl.1.0.0.UPF: wavefunction(s)  4S 4P 3D renormalized

     Subspace diagonalization in iterative solution of the eigenvalue problem:
     a serial algorithm will be used

     Found symmetry operation: I + ( -0.5000 -0.5000  0.0000)
     This is a supercell, fractional translations are disabled
     Message from routine setup:
     using ibrav=0 with symmetry is DISCOURAGED, use correct ibrav instead
 
     Parallelization info
     --------------------
     sticks:   dense  smooth     PW     G-vecs:    dense   smooth      PW
     Min         494     395    107                29013    20763    2953
     Max         496     396    108                29014    20766    2957
     Sum       11877    9495   2585               696327   498349   70921
 


     bravais-lattice index     =            0
     lattice parameter (alat)  =       1.8897  a.u.
     unit-cell volume          =    3688.3023 (a.u.)^3
     number of atoms/cell      =           20
     number of atomic types    =            3
     number of electrons       =       244.00
     number of Kohn-Sham states=          146
     kinetic-energy cutoff     =     100.0000  Ry
     charge density cutoff     =     500.0000  Ry
     scf convergence threshold =      1.0E-08
     mixing beta               =       0.4000
     number of iterations used =            8  plain     mixing
     Exchange-correlation= SLA  PW   PBX  PBC
                           (   1   4   3   4   0   0   0)

     celldm(1)=   1.889726  celldm(2)=   0.000000  celldm(3)=   0.000000
     celldm(4)=   0.000000  celldm(5)=   0.000000  celldm(6)=   0.000000

     crystal axes: (cart. coord. in units of alat)
               a(1) = (   6.967356   0.000000   0.000000 )  
               a(2) = (   0.000000  11.998880   0.000000 )  
               a(3) = (  -2.324723   0.000000   6.537643 )  

     reciprocal axes: (cart. coord. in units 2 pi/alat)
               b(1) = (  0.143526  0.000000  0.051037 )  
               b(2) = (  0.000000  0.083341  0.000000 )  
               b(3) = (  0.000000  0.000000  0.152960 )  


     PseudoPot. # 1 for Li read from file:
     /central/groups/SeeGroup/qe_pseudopotentials/Li.pbe-s-kjpaw_psl.1.0.0.UPF
     MD5 check sum: cc502796ee09d8b62ac346ee26e59beb
     Pseudo is Projector augmented-wave, Zval =  3.0
     Generated using &quot;atomic&quot; code by A. Dal Corso  v.6.3
     Shape of augmentation charge: PSQ
     Using radial grid of 1017 points,  4 beta functions with: 
                l(1) =   0
                l(2) =   0
                l(3) =   1
                l(4) =   1
     Q(r) pseudized with 0 coefficients 


     PseudoPot. # 2 for Er read from file:
     /central/groups/SeeGroup/qe_pseudopotentials/Er.pbe-spdn-kjpaw_psl.1.0.0.UPF
     MD5 check sum: a923254af2aef992cff3e18bc73f2922
     Pseudo is Projector augmented-wave + core cor, Zval = 11.0
     Generated using &quot;atomic&quot; code by A. Dal Corso  v.6.2.2
     Shape of augmentation charge: PSQ
     Using radial grid of 1267 points,  6 beta functions with: 
                l(1) =   0
                l(2) =   0
                l(3) =   1
                l(4) =   1
                l(5) =   2
                l(6) =   2
     Q(r) pseudized with 0 coefficients 


     PseudoPot. # 3 for Br read from file:
     /central/groups/SeeGroup/qe_pseudopotentials/Br.pbe-dn-kjpaw_psl.1.0.0.UPF
     MD5 check sum: 4ca4ebabfd6065c7bb707b2ebe99e9b3
     Pseudo is Projector augmented-wave + core cor, Zval = 17.0
     Generated using &quot;atomic&quot; code by A. Dal Corso  v.6.3
     Shape of augmentation charge: PSQ
     Using radial grid of 1213 points,  6 beta functions with: 
                l(1) =   0
                l(2) =   0
                l(3) =   1
                l(4) =   1
                l(5) =   2
                l(6) =   2
     Q(r) pseudized with 0 coefficients 


     atomic species   valence    mass     pseudopotential
        Li             3.00     6.94100     Li( 1.00)
        Er            11.00   167.25900     Er( 1.00)
        Br            17.00    79.90400     Br( 1.00)

      2 Sym. Ops. (no inversion) found



   Cartesian axes

     site n.     atom                  positions (alat units)
         1           Li  tau(   1) = (   3.4836780   9.9564306   0.0000000  )
         2           Li  tau(   2) = (   3.4836780   2.0173957   0.0000000  )
         3           Li  tau(   3) = (   2.3213165   7.8846440   3.2688215  )
         4           Li  tau(   4) = (   0.0000000   3.9569906   0.0000000  )
         5           Li  tau(   5) = (   0.0000000   8.0168357   0.0000000  )
         6           Li  tau(   6) = (  -1.1623615   1.8852040   3.2688215  )
         7           Er  tau(   7) = (   3.4836780   5.9699947   0.0000000  )
         8           Er  tau(   8) = (   0.0000000  11.9694347   0.0000000  )
         9           Br  tau(   9) = (   3.4471523   9.9581465   5.0158758  )
        10           Br  tau(  10) = (   3.5847273   1.9854607   4.9258002  )
        11           Br  tau(  11) = (   1.0579057   1.9854607   1.6118428  )
        12           Br  tau(  12) = (   1.1954807   9.9581465   1.5217672  )
        13           Br  tau(  13) = (  -0.0150075   0.0698395   4.9769442  )
        14           Br  tau(  14) = (   4.6576405   0.0698395   1.5606988  )
        15           Br  tau(  15) = (  -0.0365257   3.9587065   5.0158758  )
        16           Br  tau(  16) = (   0.1010493   7.9849007   4.9258002  )
        17           Br  tau(  17) = (   4.5415837   7.9849007   1.6118428  )
        18           Br  tau(  18) = (   4.6791587   3.9587065   1.5217672  )
        19           Br  tau(  19) = (   3.4686705   6.0692795   4.9769442  )
        20           Br  tau(  20) = (   1.1739625   6.0692795   1.5606988  )

     number of k points=   102  Fermi-Dirac smearing, width (Ry)=  0.0070

     Number of k-points >= 100: set verbosity='high' to print them.

     Dense  grid:   696327 G-vectors     FFT dimensions: (  96, 162,  96)

     Smooth grid:   498349 G-vectors     FFT dimensions: (  90, 150,  90)

     Estimated max dynamical RAM per process >     384.89 MB

     Estimated total dynamical RAM >      18.04 GB

     Initial potential from superposition of free atoms

     starting charge  243.93496, renormalised to  244.00000
     Starting wfcs are  164 randomized atomic wfcs
     Checking if some PAW data can be deallocated... 

     total cpu time spent up to now is       44.6 secs

     Self-consistent Calculation

     iteration #  1     ecut=   100.00 Ry     beta= 0.40
     Davidson diagonalization with overlap
     ethr =  1.00E-02,  avg # of iterations =  5.3

     Threshold (ethr) on eigenvalues was too large:
     Diagonalizing with lowered threshold

     Davidson diagonalization with overlap
     ethr =  1.17E-04,  avg # of iterations =  9.0

     total cpu time spent up to now is      332.3 secs

     total energy              =   -6740.52452052 Ry
     estimated scf accuracy    <       0.28226380 Ry

     iteration #  2     ecut=   100.00 Ry     beta= 0.40
     Davidson diagonalization with overlap
     ethr =  1.16E-04,  avg # of iterations =  2.0

     total cpu time spent up to now is      441.3 secs

     total energy              =   -6740.55054183 Ry
     estimated scf accuracy    <       0.03926480 Ry

     iteration #  3     ecut=   100.00 Ry     beta= 0.40
     Davidson diagonalization with overlap
     ethr =  1.61E-05,  avg # of iterations =  7.2

     total cpu time spent up to now is      581.6 secs

     total energy              =   -6740.55561469 Ry
     estimated scf accuracy    <       0.00552949 Ry

     iteration #  4     ecut=   100.00 Ry     beta= 0.40
     Davidson diagonalization with overlap
     c_bands:  1 eigenvalues not converged
     c_bands:  1 eigenvalues not converged
     c_bands:  1 eigenvalues not converged
     ethr =  2.27E-06,  avg # of iterations =  9.5

     total cpu time spent up to now is      741.8 secs

     total energy              =   -6740.55629181 Ry
     estimated scf accuracy    <       0.00075521 Ry

     iteration #  5     ecut=   100.00 Ry     beta= 0.40
     Davidson diagonalization with overlap
     ethr =  3.10E-07,  avg # of iterations =  2.1

     total cpu time spent up to now is      848.1 secs

     total energy              =   -6740.55642020 Ry
     estimated scf accuracy    <       0.00016363 Ry

     iteration #  6     ecut=   100.00 Ry     beta= 0.40
     Davidson diagonalization with overlap
     ethr =  6.71E-08,  avg # of iterations =  2.0

     total cpu time spent up to now is      953.9 secs

     total energy              =   -6740.55643692 Ry
     estimated scf accuracy    <       0.00003124 Ry

     iteration #  7     ecut=   100.00 Ry     beta= 0.40
     Davidson diagonalization with overlap
     ethr =  1.28E-08,  avg # of iterations =  2.0

     total cpu time spent up to now is     1059.7 secs

     total energy              =   -6740.55643852 Ry
     estimated scf accuracy    <       0.00000117 Ry

     iteration #  8     ecut=   100.00 Ry     beta= 0.40
     Davidson diagonalization with overlap
     ethr =  4.81E-10,  avg # of iterations =  2.0

     total cpu time spent up to now is     1171.8 secs

     total energy              =   -6740.55643865 Ry
     estimated scf accuracy    <       0.00000012 Ry

     iteration #  9     ecut=   100.00 Ry     beta= 0.40
     Davidson diagonalization with overlap
     ethr =  4.80E-11,  avg # of iterations =  2.0

     total cpu time spent up to now is     1279.4 secs

     total energy              =   -6740.55643866 Ry
     estimated scf accuracy    <       0.00000001 Ry

     iteration # 10     ecut=   100.00 Ry     beta= 0.40
     Davidson diagonalization with overlap
     ethr =  4.24E-12,  avg # of iterations =  2.5

     total cpu time spent up to now is     1393.8 secs

     End of self-consistent calculation

     Number of k-points >= 100: set verbosity='high' to print the bands.

     the Fermi energy is     4.8315 ev

!    total energy              =   -6740.55643867 Ry

     total all-electron energy =   -114993.572396 Ry
     estimated scf accuracy    <          6.5E-10 Ry
     smearing contrib. (-TS)   =      -0.00000000 Ry
     internal energy E=F+TS    =   -6740.55643867 Ry

     The total energy is F=E-TS. E is the sum of the following terms:
     one-electron contribution =   -3515.74943080 Ry
     hartree contribution      =    1687.82955761 Ry
     xc contribution           =    -503.20524864 Ry
     ewald contribution        =   -1690.68325647 Ry
     one-center paw contrib.   =   -2718.74806037 Ry

     convergence has been achieved in  10 iterations

     Forces acting on atoms (cartesian axes, Ry/au):

     atom    1 type  1   force =     0.00000000   -0.00205613    0.00000000
     atom    2 type  1   force =     0.00000000    0.00042858    0.00000000
     atom    3 type  1   force =     0.00000000   -0.00038794    0.00000000
     atom    4 type  1   force =     0.00000000   -0.00205631    0.00000000
     atom    5 type  1   force =     0.00000000    0.00043026    0.00000000
     atom    6 type  1   force =     0.00000000   -0.00038850    0.00000000
     atom    7 type  2   force =     0.00000000    0.00082239    0.00000000
     atom    8 type  2   force =     0.00000000    0.00082051    0.00000000
     atom    9 type  3   force =     0.00090813    0.00148643    0.00389588
     atom   10 type  3   force =     0.00316709   -0.00235878    0.00130825
     atom   11 type  3   force =    -0.00316709   -0.00235878   -0.00130825
     atom   12 type  3   force =    -0.00090813    0.00148643   -0.00389588
     atom   13 type  3   force =    -0.00317190    0.00149117    0.00326351
     atom   14 type  3   force =     0.00317190    0.00149117   -0.00326351
     atom   15 type  3   force =     0.00090487    0.00144887    0.00390737
     atom   16 type  3   force =     0.00315733   -0.00234830    0.00129668
     atom   17 type  3   force =    -0.00315733   -0.00234830   -0.00129668
     atom   18 type  3   force =    -0.00090487    0.00144887   -0.00390737
     atom   19 type  3   force =    -0.00315004    0.00147419    0.00326849
     atom   20 type  3   force =     0.00315004    0.00147419   -0.00326849

     Total force =     0.015609     Total SCF correction =     0.000164


     Computing stress (Cartesian axis) and pressure

          total   stress  (Ry/bohr**3)                   (kbar)     P=       -4.99
  -0.00003701   0.00000000   0.00000130           -5.44        0.00        0.19
   0.00000000  -0.00003862   0.00000000            0.00       -5.68        0.00
   0.00000130   0.00000000  -0.00002605            0.19        0.00       -3.83


     Writing output data file ./pwscf.save/
 
     init_run     :     43.25s CPU     44.12s WALL (       1 calls)
     electrons    :   1333.33s CPU   1349.44s WALL (       1 calls)
     forces       :     14.38s CPU     14.45s WALL (       1 calls)
     stress       :    207.57s CPU    208.26s WALL (       1 calls)

     Called by init_run:
     wfcinit      :     19.28s CPU     19.96s WALL (       1 calls)
     potinit      :      3.35s CPU      3.37s WALL (       1 calls)
     hinit0       :      0.85s CPU      0.91s WALL (       1 calls)

     Called by electrons:
     c_bands      :   1168.12s CPU   1182.10s WALL (      11 calls)
     sum_band     :    158.40s CPU    160.06s WALL (      11 calls)
     v_of_rho     :      0.53s CPU      0.54s WALL (      11 calls)
     newd         :      3.62s CPU      3.84s WALL (      11 calls)
     PAW_pot      :      2.81s CPU      2.82s WALL (      11 calls)
     mix_rho      :      0.13s CPU      0.14s WALL (      11 calls)

     Called by c_bands:
     init_us_2    :      6.69s CPU      6.74s WALL (    1275 calls)
     cegterg      :    550.07s CPU    561.63s WALL (     561 calls)

     Called by *egterg:
     cdiaghg      :     73.77s CPU     74.75s WALL (    2922 calls)
     h_psi        :    315.74s CPU    322.17s WALL (    3024 calls)
     s_psi        :     32.14s CPU     32.26s WALL (    3024 calls)
     g_psi        :      1.38s CPU      1.39s WALL (    2412 calls)

     Called by h_psi:
     h_psi:calbec :     35.43s CPU     35.54s WALL (    3024 calls)
     vloc_psi     :    243.94s CPU    247.74s WALL (    3024 calls)
     add_vuspsi   :     32.50s CPU     32.60s WALL (    3024 calls)

     General routines
     calbec       :     80.36s CPU     80.60s WALL (    3840 calls)
     fft          :      0.44s CPU      0.51s WALL (     167 calls)
     ffts         :      0.04s CPU      0.04s WALL (      22 calls)
     fftw         :    266.35s CPU    270.46s WALL (  482300 calls)
     interpolate  :      0.05s CPU      0.05s WALL (      11 calls)
 
     Parallel routines
     fft_scatt_xy :     43.54s CPU     44.17s WALL (  482489 calls)
     fft_scatt_yz :     98.36s CPU     99.92s WALL (  482489 calls)
 
     PWSCF        :  26m48.77s CPU  27m23.58s WALL

 
   This run was terminated on:  18:31:39   2Aug2021            

=------------------------------------------------------------------------------=
   JOB DONE.
=------------------------------------------------------------------------------=
