
     Program PWSCF v.6.7MaX starts on  2Aug2021 at 17:33:34 

     This program is part of the open-source Quantum ESPRESSO suite
     for quantum simulation of materials; please cite
         "P. Giannozzi et al., J. Phys.:Condens. Matter 21 395502 (2009);
         "P. Giannozzi et al., J. Phys.:Condens. Matter 29 465901 (2017);
          URL http://www.quantum-espresso.org", 
     in publications or presentations arising from this work. More details at
     http://www.quantum-espresso.org/quote

     Parallel version (MPI), running on    48 processors

     MPI processes distributed on     2 nodes
     K-points division:     npool     =       2
     R & G space division:  proc/nbgrp/npool/nimage =      24
     Waiting for input...
     Reading input from standard input
Warning: card &CELL ignored
Warning: card CELL_DYNAMICS             = 'BFGS', ignored
Warning: card PRESS                     = '0.0', ignored
Warning: card PRESS_CONV_THR            = '0.5', ignored
Warning: card / ignored
     Message from routine read_cards :
     DEPRECATED: no units specified in CELL_PARAMETERS card

     Current dimensions of program PWSCF are:
     Max number of different atomic species (ntypx) = 10
     Max number of k-points (npk) =  40000
     Max angular momentum in pseudopotentials (lmaxx) =  3
     Message from routine cell_base_init:
     DEPRECATED: use true lattice parameter, not A to a.u. conversion factor
 end of file reached, closing tag not found
     file Er.pbe-spdn-kjpaw_psl.1.0.0.UPF: wavefunction(s)  6S 5D renormalized
     file Br.pbe-dn-kjpaw_psl.1.0.0.UPF: wavefunction(s)  4S 4P 3D renormalized

     Subspace diagonalization in iterative solution of the eigenvalue problem:
     a serial algorithm will be used

     Found symmetry operation: I + ( -0.5000 -0.5000  0.0000)
     This is a supercell, fractional translations are disabled
     Message from routine setup:
     using ibrav=0 with symmetry is DISCOURAGED, use correct ibrav instead
 
     Parallelization info
     --------------------
     sticks:   dense  smooth     PW     G-vecs:    dense   smooth      PW
     Min         594     474    127                38139    27283    3825
     Max         595     475    128                38141    27287    3828
     Sum       14271   11389   3069               915355   654837   91843
 


     bravais-lattice index     =            0
     lattice parameter (alat)  =       1.8897  a.u.
     unit-cell volume          =    3688.3023 (a.u.)^3
     number of atoms/cell      =           20
     number of atomic types    =            3
     number of electrons       =       244.00
     number of Kohn-Sham states=          146
     kinetic-energy cutoff     =     120.0000  Ry
     charge density cutoff     =     600.0000  Ry
     scf convergence threshold =      1.0E-08
     mixing beta               =       0.4000
     number of iterations used =            8  plain     mixing
     Exchange-correlation= SLA  PW   PBX  PBC
                           (   1   4   3   4   0   0   0)

     celldm(1)=   1.889726  celldm(2)=   0.000000  celldm(3)=   0.000000
     celldm(4)=   0.000000  celldm(5)=   0.000000  celldm(6)=   0.000000

     crystal axes: (cart. coord. in units of alat)
               a(1) = (   6.967356   0.000000   0.000000 )  
               a(2) = (   0.000000  11.998880   0.000000 )  
               a(3) = (  -2.324723   0.000000   6.537643 )  

     reciprocal axes: (cart. coord. in units 2 pi/alat)
               b(1) = (  0.143526  0.000000  0.051037 )  
               b(2) = (  0.000000  0.083341  0.000000 )  
               b(3) = (  0.000000  0.000000  0.152960 )  


     PseudoPot. # 1 for Li read from file:
     /central/groups/SeeGroup/qe_pseudopotentials/Li.pbe-s-kjpaw_psl.1.0.0.UPF
     MD5 check sum: cc502796ee09d8b62ac346ee26e59beb
     Pseudo is Projector augmented-wave, Zval =  3.0
     Generated using &quot;atomic&quot; code by A. Dal Corso  v.6.3
     Shape of augmentation charge: PSQ
     Using radial grid of 1017 points,  4 beta functions with: 
                l(1) =   0
                l(2) =   0
                l(3) =   1
                l(4) =   1
     Q(r) pseudized with 0 coefficients 


     PseudoPot. # 2 for Er read from file:
     /central/groups/SeeGroup/qe_pseudopotentials/Er.pbe-spdn-kjpaw_psl.1.0.0.UPF
     MD5 check sum: a923254af2aef992cff3e18bc73f2922
     Pseudo is Projector augmented-wave + core cor, Zval = 11.0
     Generated using &quot;atomic&quot; code by A. Dal Corso  v.6.2.2
     Shape of augmentation charge: PSQ
     Using radial grid of 1267 points,  6 beta functions with: 
                l(1) =   0
                l(2) =   0
                l(3) =   1
                l(4) =   1
                l(5) =   2
                l(6) =   2
     Q(r) pseudized with 0 coefficients 


     PseudoPot. # 3 for Br read from file:
     /central/groups/SeeGroup/qe_pseudopotentials/Br.pbe-dn-kjpaw_psl.1.0.0.UPF
     MD5 check sum: 4ca4ebabfd6065c7bb707b2ebe99e9b3
     Pseudo is Projector augmented-wave + core cor, Zval = 17.0
     Generated using &quot;atomic&quot; code by A. Dal Corso  v.6.3
     Shape of augmentation charge: PSQ
     Using radial grid of 1213 points,  6 beta functions with: 
                l(1) =   0
                l(2) =   0
                l(3) =   1
                l(4) =   1
                l(5) =   2
                l(6) =   2
     Q(r) pseudized with 0 coefficients 


     atomic species   valence    mass     pseudopotential
        Li             3.00     6.94100     Li( 1.00)
        Er            11.00   167.25900     Er( 1.00)
        Br            17.00    79.90400     Br( 1.00)

      2 Sym. Ops. (no inversion) found



   Cartesian axes

     site n.     atom                  positions (alat units)
         1           Li  tau(   1) = (   3.4836780   9.9564306   0.0000000  )
         2           Li  tau(   2) = (   3.4836780   2.0173957   0.0000000  )
         3           Li  tau(   3) = (   2.3213165   7.8846440   3.2688215  )
         4           Li  tau(   4) = (   0.0000000   3.9569906   0.0000000  )
         5           Li  tau(   5) = (   0.0000000   8.0168357   0.0000000  )
         6           Li  tau(   6) = (  -1.1623615   1.8852040   3.2688215  )
         7           Er  tau(   7) = (   3.4836780   5.9699947   0.0000000  )
         8           Er  tau(   8) = (   0.0000000  11.9694347   0.0000000  )
         9           Br  tau(   9) = (   3.4471523   9.9581465   5.0158758  )
        10           Br  tau(  10) = (   3.5847273   1.9854607   4.9258002  )
        11           Br  tau(  11) = (   1.0579057   1.9854607   1.6118428  )
        12           Br  tau(  12) = (   1.1954807   9.9581465   1.5217672  )
        13           Br  tau(  13) = (  -0.0150075   0.0698395   4.9769442  )
        14           Br  tau(  14) = (   4.6576405   0.0698395   1.5606988  )
        15           Br  tau(  15) = (  -0.0365257   3.9587065   5.0158758  )
        16           Br  tau(  16) = (   0.1010493   7.9849007   4.9258002  )
        17           Br  tau(  17) = (   4.5415837   7.9849007   1.6118428  )
        18           Br  tau(  18) = (   4.6791587   3.9587065   1.5217672  )
        19           Br  tau(  19) = (   3.4686705   6.0692795   4.9769442  )
        20           Br  tau(  20) = (   1.1739625   6.0692795   1.5606988  )

     number of k points=    40  Fermi-Dirac smearing, width (Ry)=  0.0070
                       cart. coord. in units 2pi/alat
        k(    1) = (   0.0000000   0.0000000   0.0000000), wk =   0.0185185
        k(    2) = (   0.0000000   0.0000000   0.0254934), wk =   0.0370370
        k(    3) = (   0.0000000   0.0000000   0.0509868), wk =   0.0370370
        k(    4) = (   0.0000000   0.0000000  -0.0764802), wk =   0.0185185
        k(    5) = (   0.0000000   0.0277804   0.0000000), wk =   0.0370370
        k(    6) = (   0.0000000   0.0277804   0.0254934), wk =   0.0740741
        k(    7) = (   0.0000000   0.0277804   0.0509868), wk =   0.0740741
        k(    8) = (   0.0000000   0.0277804  -0.0764802), wk =   0.0370370
        k(    9) = (   0.0239211   0.0000000   0.0085061), wk =   0.0370370
        k(   10) = (   0.0239211   0.0000000   0.0339995), wk =   0.0370370
        k(   11) = (   0.0239211   0.0000000   0.0594929), wk =   0.0370370
        k(   12) = (   0.0239211   0.0000000  -0.0679741), wk =   0.0370370
        k(   13) = (   0.0239211   0.0000000  -0.0424807), wk =   0.0370370
        k(   14) = (   0.0239211   0.0000000  -0.0169873), wk =   0.0370370
        k(   15) = (   0.0239211   0.0277804   0.0085061), wk =   0.0740741
        k(   16) = (   0.0239211   0.0277804   0.0339995), wk =   0.0740741
        k(   17) = (   0.0239211   0.0277804   0.0594929), wk =   0.0740741
        k(   18) = (   0.0239211   0.0277804  -0.0679741), wk =   0.0740741
        k(   19) = (   0.0239211   0.0277804  -0.0424807), wk =   0.0740741
        k(   20) = (   0.0239211   0.0277804  -0.0169873), wk =   0.0740741
        k(   21) = (   0.0478422   0.0000000   0.0170122), wk =   0.0370370
        k(   22) = (   0.0478422   0.0000000   0.0425056), wk =   0.0370370
        k(   23) = (   0.0478422   0.0000000   0.0679990), wk =   0.0370370
        k(   24) = (   0.0478422   0.0000000  -0.0594680), wk =   0.0370370
        k(   25) = (   0.0478422   0.0000000  -0.0339746), wk =   0.0370370
        k(   26) = (   0.0478422   0.0000000  -0.0084812), wk =   0.0370370
        k(   27) = (   0.0478422   0.0277804   0.0170122), wk =   0.0740741
        k(   28) = (   0.0478422   0.0277804   0.0425056), wk =   0.0740741
        k(   29) = (   0.0478422   0.0277804   0.0679990), wk =   0.0740741
        k(   30) = (   0.0478422   0.0277804  -0.0594680), wk =   0.0740741
        k(   31) = (   0.0478422   0.0277804  -0.0339746), wk =   0.0740741
        k(   32) = (   0.0478422   0.0277804  -0.0084812), wk =   0.0740741
        k(   33) = (  -0.0717632   0.0000000  -0.0255183), wk =   0.0185185
        k(   34) = (  -0.0717632   0.0000000  -0.0000249), wk =   0.0370370
        k(   35) = (  -0.0717632   0.0000000   0.0254685), wk =   0.0370370
        k(   36) = (  -0.0717632   0.0000000  -0.1019985), wk =   0.0185185
        k(   37) = (  -0.0717632   0.0277804  -0.0255183), wk =   0.0370370
        k(   38) = (  -0.0717632   0.0277804  -0.0000249), wk =   0.0740741
        k(   39) = (  -0.0717632   0.0277804   0.0254685), wk =   0.0740741
        k(   40) = (  -0.0717632   0.0277804  -0.1019985), wk =   0.0370370

     Dense  grid:   915355 G-vectors     FFT dimensions: ( 108, 180, 108)

     Smooth grid:   654837 G-vectors     FFT dimensions: (  96, 160,  96)

     Estimated max dynamical RAM per process >     270.22 MB

     Estimated total dynamical RAM >      12.67 GB

     Initial potential from superposition of free atoms

     starting charge  243.93496, renormalised to  244.00000
     Starting wfcs are  164 randomized atomic wfcs
     Checking if some PAW data can be deallocated... 

     total cpu time spent up to now is       14.7 secs

     Self-consistent Calculation

     iteration #  1     ecut=   120.00 Ry     beta= 0.40
     Davidson diagonalization with overlap
     ethr =  1.00E-02,  avg # of iterations =  5.5

     Threshold (ethr) on eigenvalues was too large:
     Diagonalizing with lowered threshold

     Davidson diagonalization with overlap
     ethr =  1.17E-04,  avg # of iterations =  9.4

     total cpu time spent up to now is       95.5 secs

     total energy              =   -6740.52984538 Ry
     estimated scf accuracy    <       0.28240851 Ry

     iteration #  2     ecut=   120.00 Ry     beta= 0.40
     Davidson diagonalization with overlap
     ethr =  1.16E-04,  avg # of iterations =  2.0

     total cpu time spent up to now is      126.8 secs

     total energy              =   -6740.55591280 Ry
     estimated scf accuracy    <       0.03883250 Ry

     iteration #  3     ecut=   120.00 Ry     beta= 0.40
     Davidson diagonalization with overlap
     c_bands:  1 eigenvalues not converged
     ethr =  1.59E-05,  avg # of iterations =  8.1

     total cpu time spent up to now is      168.9 secs

     total energy              =   -6740.56098024 Ry
     estimated scf accuracy    <       0.00544832 Ry

     iteration #  4     ecut=   120.00 Ry     beta= 0.40
     Davidson diagonalization with overlap
     ethr =  2.23E-06,  avg # of iterations =  8.7

     total cpu time spent up to now is      211.6 secs

     total energy              =   -6740.56166196 Ry
     estimated scf accuracy    <       0.00077717 Ry

     iteration #  5     ecut=   120.00 Ry     beta= 0.40
     Davidson diagonalization with overlap
     ethr =  3.19E-07,  avg # of iterations =  2.0

     total cpu time spent up to now is      242.0 secs

     total energy              =   -6740.56179492 Ry
     estimated scf accuracy    <       0.00017861 Ry

     iteration #  6     ecut=   120.00 Ry     beta= 0.40
     Davidson diagonalization with overlap
     ethr =  7.32E-08,  avg # of iterations =  2.0

     total cpu time spent up to now is      272.2 secs

     total energy              =   -6740.56181207 Ry
     estimated scf accuracy    <       0.00003442 Ry

     iteration #  7     ecut=   120.00 Ry     beta= 0.40
     Davidson diagonalization with overlap
     ethr =  1.41E-08,  avg # of iterations =  2.0

     total cpu time spent up to now is      302.3 secs

     total energy              =   -6740.56181371 Ry
     estimated scf accuracy    <       0.00000100 Ry

     iteration #  8     ecut=   120.00 Ry     beta= 0.40
     Davidson diagonalization with overlap
     ethr =  4.08E-10,  avg # of iterations =  2.0

     total cpu time spent up to now is      336.4 secs

     total energy              =   -6740.56181382 Ry
     estimated scf accuracy    <       0.00000012 Ry

     iteration #  9     ecut=   120.00 Ry     beta= 0.40
     Davidson diagonalization with overlap
     ethr =  4.91E-11,  avg # of iterations =  2.0

     total cpu time spent up to now is      367.1 secs

     End of self-consistent calculation

          k = 0.0000 0.0000 0.0000 ( 81869 PWs)   bands (ev):

   -56.2766 -56.2766 -56.2765 -56.2765 -56.2737 -56.2737 -56.2736 -56.2736
   -56.2589 -56.2589 -56.2588 -56.2588 -56.2537 -56.2537 -56.2537 -56.2536
   -56.2513 -56.2513 -56.2513 -56.2512 -56.2377 -56.2377 -56.2377 -56.2376
   -56.2256 -56.2256 -56.2256 -56.2256 -56.2220 -56.2219 -56.2219 -56.2219
   -56.2109 -56.2108 -56.2108 -56.2108 -56.2079 -56.2079 -56.2079 -56.2079
   -56.1927 -56.1927 -56.1927 -56.1927 -56.1917 -56.1917 -56.1917 -56.1917
   -56.1908 -56.1908 -56.1907 -56.1907 -56.1846 -56.1846 -56.1846 -56.1846
   -56.1817 -56.1817 -56.1816 -56.1816 -46.9321 -46.9320 -42.0680 -42.0680
   -41.7994 -41.7993 -41.7709 -41.7708 -20.7600 -20.7599 -20.7546 -20.7546
   -20.7545 -20.7543 -10.7218 -10.5408 -10.3948 -10.2883 -10.2785 -10.2692
   -10.2366 -10.2319 -10.2244 -10.1600 -10.1546 -10.1288  -0.1684  -0.1594
     0.2179   0.2442   0.2633   0.4075   0.4549   0.6220   0.6722   0.7410
     0.8621   0.8623   0.8730   0.9982   1.1250   1.2410   1.2641   1.2677
     1.2728   1.4827   1.5252   1.6950   1.7401   1.9380   1.9804   2.0168
     2.0552   2.0730   2.1870   2.2405   2.3321   2.4622   2.5280   2.5281
     2.5730   2.5792   7.0473   7.3026   7.4452   7.4650   7.4669   7.5186
     7.5471   8.7245   8.7421   8.8084   9.1065   9.1638   9.3651   9.3989
     9.4758   9.7236   9.9171  10.3104  10.3252  10.3769  10.6701  10.8570
    10.9490  11.1005

          k = 0.0000 0.0000 0.0255 ( 81863 PWs)   bands (ev):

   -56.2766 -56.2766 -56.2765 -56.2765 -56.2737 -56.2737 -56.2736 -56.2736
   -56.2589 -56.2589 -56.2588 -56.2588 -56.2537 -56.2537 -56.2537 -56.2536
   -56.2513 -56.2513 -56.2513 -56.2512 -56.2377 -56.2377 -56.2377 -56.2377
   -56.2256 -56.2256 -56.2256 -56.2256 -56.2219 -56.2219 -56.2219 -56.2219
   -56.2109 -56.2108 -56.2108 -56.2108 -56.2079 -56.2079 -56.2079 -56.2079
   -56.1927 -56.1927 -56.1927 -56.1927 -56.1917 -56.1917 -56.1917 -56.1917
   -56.1908 -56.1908 -56.1907 -56.1907 -56.1846 -56.1846 -56.1846 -56.1846
   -56.1817 -56.1817 -56.1816 -56.1816 -46.9321 -46.9320 -42.0680 -42.0680
   -41.7994 -41.7993 -41.7709 -41.7708 -20.7600 -20.7599 -20.7546 -20.7546
   -20.7545 -20.7543 -10.7003 -10.5244 -10.3859 -10.2908 -10.2851 -10.2829
   -10.2458 -10.2408 -10.2189 -10.1674 -10.1637 -10.1305  -0.1180  -0.0752
     0.2590   0.2608   0.2962   0.3642   0.4581   0.4954   0.6992   0.8112
     0.8393   0.8924   0.9842   1.0490   1.0848   1.1031   1.2409   1.3598
     1.3634   1.4449   1.4760   1.6697   1.7473   1.9588   1.9969   2.0227
     2.0405   2.1032   2.1734   2.2196   2.3082   2.3515   2.3613   2.5110
     2.5218   2.5226   7.1101   7.2914   7.3737   7.4294   7.4877   7.5356
     7.7784   8.7637   8.7918   8.9575   9.0884   9.1756   9.3142   9.3629
     9.6389   9.9847  10.0189  10.1191  10.3613  10.6066  10.6537  10.7327
    10.9814  11.1699

          k = 0.0000 0.0000 0.0510 ( 81881 PWs)   bands (ev):

   -56.2766 -56.2766 -56.2765 -56.2765 -56.2737 -56.2737 -56.2736 -56.2736
   -56.2589 -56.2589 -56.2588 -56.2588 -56.2537 -56.2537 -56.2537 -56.2536
   -56.2513 -56.2513 -56.2513 -56.2512 -56.2377 -56.2377 -56.2377 -56.2377
   -56.2256 -56.2256 -56.2256 -56.2256 -56.2219 -56.2219 -56.2219 -56.2219
   -56.2109 -56.2108 -56.2108 -56.2108 -56.2079 -56.2079 -56.2079 -56.2079
   -56.1927 -56.1927 -56.1927 -56.1927 -56.1917 -56.1917 -56.1917 -56.1917
   -56.1908 -56.1908 -56.1907 -56.1907 -56.1846 -56.1846 -56.1846 -56.1846
   -56.1817 -56.1817 -56.1817 -56.1816 -46.9321 -46.9320 -42.0680 -42.0680
   -41.7994 -41.7993 -41.7709 -41.7708 -20.7600 -20.7600 -20.7546 -20.7546
   -20.7546 -20.7543 -10.6470 -10.4846 -10.3629 -10.3409 -10.3026 -10.2864
   -10.2653 -10.2402 -10.2351 -10.1820 -10.1660 -10.1364  -0.0266   0.1033
     0.2247   0.2890   0.3598   0.4352   0.4796   0.5434   0.6882   0.7722
     0.8401   0.8933   0.9469   1.0691   1.0990   1.2137   1.3203   1.3487
     1.3975   1.4129   1.5328   1.5624   1.7644   1.8166   1.8969   1.9831
     2.0636   2.0652   2.0856   2.1322   2.1829   2.2707   2.3251   2.3837
     2.4758   2.4829   7.2183   7.2401   7.2557   7.3427   7.4916   7.5609
     8.3793   8.7117   8.9058   9.0054   9.1172   9.3891   9.5520   9.7068
     9.8237   9.9427  10.1169  10.2547  10.3963  10.6573  10.7183  10.8578
    10.8875  11.0142

          k = 0.0000 0.0000-0.0765 ( 81848 PWs)   bands (ev):

   -56.2766 -56.2766 -56.2765 -56.2765 -56.2737 -56.2737 -56.2736 -56.2736
   -56.2589 -56.2589 -56.2588 -56.2588 -56.2537 -56.2537 -56.2537 -56.2536
   -56.2513 -56.2513 -56.2512 -56.2512 -56.2377 -56.2377 -56.2377 -56.2377
   -56.2256 -56.2256 -56.2256 -56.2256 -56.2219 -56.2219 -56.2219 -56.2219
   -56.2109 -56.2108 -56.2108 -56.2108 -56.2079 -56.2079 -56.2079 -56.2079
   -56.1927 -56.1927 -56.1927 -56.1927 -56.1917 -56.1917 -56.1917 -56.1917
   -56.1908 -56.1907 -56.1907 -56.1907 -56.1846 -56.1846 -56.1846 -56.1846
   -56.1817 -56.1817 -56.1817 -56.1816 -46.9321 -46.9320 -42.0680 -42.0680
   -41.7994 -41.7993 -41.7709 -41.7708 -20.7600 -20.7600 -20.7547 -20.7546
   -20.7546 -20.7543 -10.6105 -10.4579 -10.3799 -10.3445 -10.3195 -10.2848
   -10.2726 -10.2578 -10.2407 -10.1828 -10.1631 -10.1420   0.0250   0.1835
     0.1909   0.2487   0.3938   0.4981   0.5828   0.6733   0.6854   0.7348
     0.7823   0.9491   0.9903   1.0446   1.0949   1.2085   1.2706   1.3602
     1.3882   1.4542   1.4662   1.5322   1.6689   1.7953   1.8868   1.8996
     1.9536   2.0697   2.1217   2.1331   2.1439   2.2875   2.2985   2.3346
     2.4568   2.4597   7.1906   7.2149   7.2501   7.3270   7.4872   7.5779
     8.6393   8.7927   8.9073   9.0791   9.1932   9.4469   9.8898   9.9483
     9.9574  10.0375  10.0405  10.1870  10.2477  10.3058  10.7758  10.8080
    10.9741  10.9877

          k = 0.0000 0.0278 0.0000 ( 81871 PWs)   bands (ev):

   -56.2766 -56.2766 -56.2765 -56.2765 -56.2737 -56.2737 -56.2736 -56.2736
   -56.2589 -56.2589 -56.2588 -56.2588 -56.2537 -56.2537 -56.2537 -56.2536
   -56.2513 -56.2513 -56.2513 -56.2512 -56.2377 -56.2377 -56.2377 -56.2377
   -56.2256 -56.2256 -56.2256 -56.2256 -56.2220 -56.2219 -56.2219 -56.2219
   -56.2109 -56.2108 -56.2108 -56.2108 -56.2079 -56.2079 -56.2079 -56.2079
   -56.1927 -56.1927 -56.1927 -56.1927 -56.1917 -56.1917 -56.1917 -56.1917
   -56.1908 -56.1908 -56.1907 -56.1907 -56.1846 -56.1846 -56.1846 -56.1846
   -56.1817 -56.1817 -56.1816 -56.1816 -46.9321 -46.9320 -42.0680 -42.0680
   -41.7994 -41.7993 -41.7709 -41.7708 -20.7600 -20.7599 -20.7546 -20.7546
   -20.7545 -20.7544 -10.6903 -10.6083 -10.3438 -10.3005 -10.2880 -10.2851
   -10.2083 -10.2073 -10.2025 -10.1733 -10.1690 -10.1533  -0.1386  -0.1327
     0.1255   0.1412   0.2996   0.3751   0.4822   0.5822   0.6665   0.7633
     0.7865   0.8437   1.0673   1.0955   1.1227   1.1390   1.2197   1.2795
     1.4769   1.5599   1.6787   1.6884   1.7425   1.8857   1.8977   1.9007
     2.0065   2.2014   2.2710   2.2954   2.2988   2.3071   2.4110   2.4748
     2.5374   2.5646   7.1694   7.3325   7.4621   7.4625   7.4649   7.4990
     7.7819   8.4477   8.8139   8.8993   9.0456   9.1353   9.3408   9.4010
     9.4615   9.7348  10.0924  10.1699  10.1944  10.3094  10.7506  10.8486
    11.1221  11.1305

          k = 0.0000 0.0278 0.0255 ( 81805 PWs)   bands (ev):

   -56.2766 -56.2766 -56.2765 -56.2765 -56.2737 -56.2737 -56.2736 -56.2736
   -56.2589 -56.2589 -56.2588 -56.2588 -56.2537 -56.2537 -56.2537 -56.2536
   -56.2513 -56.2513 -56.2513 -56.2512 -56.2377 -56.2377 -56.2377 -56.2377
   -56.2256 -56.2256 -56.2256 -56.2256 -56.2219 -56.2219 -56.2219 -56.2219
   -56.2109 -56.2108 -56.2108 -56.2108 -56.2079 -56.2079 -56.2079 -56.2079
   -56.1927 -56.1927 -56.1927 -56.1927 -56.1917 -56.1917 -56.1917 -56.1917
   -56.1908 -56.1908 -56.1907 -56.1907 -56.1846 -56.1846 -56.1846 -56.1846
   -56.1817 -56.1817 -56.1816 -56.1816 -46.9321 -46.9320 -42.0680 -42.0680
   -41.7994 -41.7993 -41.7709 -41.7708 -20.7600 -20.7599 -20.7546 -20.7545
   -20.7545 -20.7544 -10.6695 -10.5899 -10.3408 -10.3061 -10.2907 -10.2885
   -10.2280 -10.2162 -10.1924 -10.1825 -10.1811 -10.1506  -0.0925  -0.0715
     0.1866   0.1911   0.3271   0.3617   0.4802   0.5057   0.6124   0.6922
     0.8337   0.9698   1.0125   1.0924   1.1271   1.1914   1.2296   1.4273
     1.4692   1.5986   1.6024   1.6557   1.7122   1.8571   1.8984   1.9247
     2.0131   2.1182   2.1957   2.2257   2.3007   2.3128   2.3472   2.4514
     2.4764   2.4879   7.2288   7.3364   7.3781   7.4348   7.4480   7.4955
     8.0185   8.5549   8.8462   8.8801   9.1816   9.2375   9.3995   9.4552
     9.6147   9.8916   9.9599  10.0523  10.3884  10.5733  10.6479  10.6680
    10.9620  11.0856

          k = 0.0000 0.0278 0.0510 ( 81822 PWs)   bands (ev):

   -56.2766 -56.2766 -56.2765 -56.2765 -56.2737 -56.2737 -56.2736 -56.2736
   -56.2589 -56.2589 -56.2588 -56.2588 -56.2537 -56.2537 -56.2537 -56.2536
   -56.2513 -56.2513 -56.2512 -56.2512 -56.2377 -56.2377 -56.2377 -56.2377
   -56.2256 -56.2256 -56.2256 -56.2256 -56.2219 -56.2219 -56.2219 -56.2219
   -56.2109 -56.2108 -56.2108 -56.2108 -56.2079 -56.2079 -56.2079 -56.2079
   -56.1927 -56.1927 -56.1927 -56.1927 -56.1917 -56.1917 -56.1917 -56.1917
   -56.1908 -56.1908 -56.1907 -56.1907 -56.1846 -56.1846 -56.1846 -56.1846
   -56.1817 -56.1817 -56.1816 -56.1816 -46.9321 -46.9320 -42.0680 -42.0680
   -41.7994 -41.7993 -41.7709 -41.7708 -20.7600 -20.7600 -20.7546 -20.7546
   -20.7545 -20.7544 -10.6182 -10.5441 -10.3417 -10.3409 -10.3055 -10.2941
   -10.2395 -10.2270 -10.2129 -10.1858 -10.1851 -10.1548  -0.0075   0.0440
     0.2379   0.2747   0.3496   0.4021   0.5079   0.5174   0.6450   0.6516
     0.9103   0.9689   0.9978   1.0702   1.1567   1.2660   1.2954   1.4162
     1.4384   1.5519   1.5708   1.6484   1.7311   1.7605   1.8554   1.9194
     1.9414   2.0538   2.0814   2.1644   2.1813   2.2848   2.2984   2.3428
     2.3783   2.4627   7.2858   7.2863   7.3329   7.3646   7.4328   7.5093
     8.4712   8.6231   8.9320   9.0523   9.3117   9.4615   9.5310   9.7923
     9.8890   9.9538  10.1125  10.1356  10.3562  10.5049  10.5184  10.6507
    10.8878  11.0843

          k = 0.0000 0.0278-0.0765 ( 81842 PWs)   bands (ev):

   -56.2766 -56.2766 -56.2765 -56.2765 -56.2737 -56.2737 -56.2736 -56.2736
   -56.2589 -56.2589 -56.2588 -56.2588 -56.2537 -56.2537 -56.2537 -56.2536
   -56.2513 -56.2513 -56.2512 -56.2512 -56.2377 -56.2377 -56.2377 -56.2377
   -56.2256 -56.2256 -56.2256 -56.2256 -56.2219 -56.2219 -56.2219 -56.2219
   -56.2109 -56.2108 -56.2108 -56.2108 -56.2079 -56.2079 -56.2079 -56.2079
   -56.1927 -56.1927 -56.1927 -56.1927 -56.1917 -56.1917 -56.1917 -56.1917
   -56.1908 -56.1907 -56.1907 -56.1907 -56.1846 -56.1846 -56.1846 -56.1846
   -56.1817 -56.1817 -56.1817 -56.1816 -46.9321 -46.9320 -42.0680 -42.0680
   -41.7994 -41.7993 -41.7709 -41.7708 -20.7600 -20.7600 -20.7546 -20.7546
   -20.7545 -20.7544 -10.5826 -10.5117 -10.3754 -10.3593 -10.3078 -10.2923
   -10.2397 -10.2342 -10.2272 -10.1858 -10.1745 -10.1656   0.0359   0.0927
     0.2201   0.2528   0.3548   0.4251   0.5901   0.6396   0.7294   0.7360
     0.9421   0.9424   1.0084   1.0509   1.0723   1.2028   1.2961   1.3823
     1.4101   1.4658   1.5960   1.6036   1.6714   1.7826   1.9098   1.9185
     1.9302   1.9487   2.0477   2.1504   2.1915   2.2278   2.2423   2.3465
     2.3544   2.4338   7.2610   7.2684   7.2870   7.3923   7.4167   7.5332
     8.5973   8.6368   9.0670   9.2329   9.4446   9.5017   9.6855   9.9245
     9.9861   9.9932  10.0299  10.2039  10.3749  10.3841  10.5830  10.7972
    10.9982  11.0997

          k = 0.0239 0.0000 0.0085 ( 81927 PWs)   bands (ev):

   -56.2766 -56.2766 -56.2765 -56.2765 -56.2737 -56.2737 -56.2736 -56.2736
   -56.2589 -56.2589 -56.2588 -56.2588 -56.2537 -56.2537 -56.2537 -56.2536
   -56.2513 -56.2513 -56.2513 -56.2512 -56.2377 -56.2377 -56.2377 -56.2377
   -56.2256 -56.2256 -56.2256 -56.2256 -56.2219 -56.2219 -56.2219 -56.2219
   -56.2109 -56.2108 -56.2108 -56.2108 -56.2079 -56.2079 -56.2079 -56.2079
   -56.1927 -56.1927 -56.1927 -56.1927 -56.1917 -56.1917 -56.1917 -56.1917
   -56.1908 -56.1908 -56.1907 -56.1907 -56.1846 -56.1846 -56.1846 -56.1846
   -56.1817 -56.1817 -56.1816 -56.1816 -46.9321 -46.9320 -42.0680 -42.0680
   -41.7994 -41.7993 -41.7709 -41.7708 -20.7600 -20.7599 -20.7546 -20.7546
   -20.7546 -20.7543 -10.6963 -10.5231 -10.3862 -10.3043 -10.2936 -10.2693
   -10.2394 -10.2355 -10.2246 -10.1767 -10.1534 -10.1341  -0.1313  -0.0566
     0.2483   0.2511   0.3399   0.3549   0.4510   0.5582   0.7190   0.7298
     0.8588   0.9041   0.9485   0.9506   1.0356   1.0608   1.2966   1.3455
     1.4053   1.4825   1.6243   1.6932   1.7649   1.9123   1.9285   2.0157
     2.0265   2.1177   2.1275   2.2755   2.2761   2.3350   2.3629   2.5023
     2.5341   2.5469   7.1071   7.3646   7.3844   7.4249   7.4432   7.4872
     7.7812   8.8036   8.8118   8.8955   9.0673   9.1325   9.3174   9.4817
     9.6202   9.8911  10.0802  10.0872  10.3633  10.5897  10.6092  10.7623
    11.0328  11.1441

          k = 0.0239 0.0000 0.0340 ( 81884 PWs)   bands (ev):

   -56.2766 -56.2766 -56.2765 -56.2765 -56.2737 -56.2737 -56.2736 -56.2736
   -56.2589 -56.2589 -56.2588 -56.2588 -56.2537 -56.2537 -56.2537 -56.2536
   -56.2513 -56.2513 -56.2512 -56.2512 -56.2377 -56.2377 -56.2377 -56.2377
   -56.2256 -56.2256 -56.2256 -56.2256 -56.2219 -56.2219 -56.2219 -56.2219
   -56.2109 -56.2108 -56.2108 -56.2108 -56.2079 -56.2079 -56.2079 -56.2079
   -56.1927 -56.1927 -56.1927 -56.1927 -56.1917 -56.1917 -56.1917 -56.1917
   -56.1908 -56.1908 -56.1907 -56.1907 -56.1846 -56.1846 -56.1846 -56.1846
   -56.1817 -56.1817 -56.1817 -56.1816 -46.9321 -46.9320 -42.0680 -42.0680
   -41.7994 -41.7993 -41.7709 -41.7708 -20.7600 -20.7599 -20.7547 -20.7546
   -20.7546 -20.7543 -10.6636 -10.5001 -10.3751 -10.3204 -10.3044 -10.2763
   -10.2514 -10.2446 -10.2266 -10.1882 -10.1634 -10.1315   0.0239   0.0329
     0.2681   0.2895   0.3621   0.4022   0.4975   0.5175   0.7798   0.7833
     0.8377   0.8855   0.9778   1.0316   1.0641   1.1040   1.2144   1.2726
     1.3415   1.3663   1.6045   1.6348   1.8130   1.8140   1.9480   2.0082
     2.0506   2.1180   2.1417   2.1783   2.2431   2.2444   2.2533   2.3867
     2.4308   2.5072   7.2063   7.3112   7.3650   7.3855   7.4891   7.5158
     8.1710   8.7449   8.8656   8.9041   9.0130   9.2336   9.5201   9.5642
     9.9758  10.0219  10.0744  10.2974  10.4613  10.7325  10.8140  10.8929
    11.1206  11.1473

          k = 0.0239 0.0000 0.0595 ( 81845 PWs)   bands (ev):

   -56.2766 -56.2766 -56.2765 -56.2765 -56.2737 -56.2737 -56.2736 -56.2736
   -56.2589 -56.2589 -56.2588 -56.2588 -56.2537 -56.2537 -56.2537 -56.2536
   -56.2513 -56.2513 -56.2512 -56.2512 -56.2377 -56.2377 -56.2377 -56.2377
   -56.2256 -56.2256 -56.2256 -56.2256 -56.2219 -56.2219 -56.2219 -56.2219
   -56.2109 -56.2108 -56.2108 -56.2108 -56.2079 -56.2079 -56.2079 -56.2079
   -56.1927 -56.1927 -56.1927 -56.1927 -56.1917 -56.1917 -56.1917 -56.1917
   -56.1908 -56.1907 -56.1907 -56.1907 -56.1846 -56.1846 -56.1846 -56.1846
   -56.1817 -56.1817 -56.1817 -56.1816 -46.9321 -46.9320 -42.0680 -42.0680
   -41.7994 -41.7993 -41.7709 -41.7708 -20.7600 -20.7600 -20.7547 -20.7546
   -20.7546 -20.7543 -10.6091 -10.4598 -10.3560 -10.3558 -10.3241 -10.2792
   -10.2727 -10.2553 -10.2531 -10.1827 -10.1688 -10.1398   0.0602   0.1512
     0.1990   0.2628   0.4449   0.4760   0.5879   0.6082   0.6441   0.7378
     0.7931   0.8633   1.0028   1.0944   1.1018   1.2251   1.2676   1.2921
     1.3473   1.3898   1.5768   1.5796   1.7220   1.8709   1.9478   1.9575
     1.9706   2.0441   2.0582   2.1201   2.1594   2.2637   2.2815   2.3241
     2.3507   2.4891   7.1903   7.2412   7.3024   7.3390   7.4853   7.5329
     8.6298   8.6963   8.9813   9.0179   9.0671   9.6357   9.6645   9.7148
     9.7888  10.0290  10.1155  10.2533  10.2831  10.4349  10.6181  10.7926
    11.1547  11.2580

          k = 0.0239 0.0000-0.0680 ( 81860 PWs)   bands (ev):

   -56.2766 -56.2766 -56.2765 -56.2765 -56.2737 -56.2737 -56.2736 -56.2736
   -56.2589 -56.2589 -56.2588 -56.2588 -56.2537 -56.2537 -56.2537 -56.2536
   -56.2513 -56.2513 -56.2512 -56.2512 -56.2377 -56.2377 -56.2377 -56.2377
   -56.2256 -56.2256 -56.2256 -56.2256 -56.2219 -56.2219 -56.2219 -56.2219
   -56.2109 -56.2108 -56.2108 -56.2108 -56.2079 -56.2079 -56.2079 -56.2079
   -56.1927 -56.1927 -56.1927 -56.1927 -56.1917 -56.1917 -56.1917 -56.1917
   -56.1908 -56.1908 -56.1907 -56.1907 -56.1846 -56.1846 -56.1846 -56.1846
   -56.1817 -56.1817 -56.1817 -56.1816 -46.9321 -46.9320 -42.0680 -42.0680
   -41.7994 -41.7993 -41.7709 -41.7708 -20.7600 -20.7600 -20.7547 -20.7546
   -20.7546 -20.7543 -10.5938 -10.4454 -10.3730 -10.3464 -10.3155 -10.2935
   -10.2879 -10.2599 -10.2454 -10.1743 -10.1693 -10.1534   0.0150   0.0557
     0.2070   0.2486   0.4071   0.4360   0.5140   0.6392   0.6701   0.6999
     0.7327   0.8482   1.0469   1.1088   1.1243   1.2062   1.3760   1.3854
     1.4495   1.5398   1.5936   1.6335   1.7279   1.8495   1.8901   1.9267
     1.9574   1.9928   2.0670   2.1167   2.2255   2.2411   2.3057   2.3674
     2.3766   2.4672   7.1479   7.2212   7.2499   7.3070   7.4355   7.5201
     8.6744   8.7150   9.0310   9.1413   9.1521   9.4700   9.5441   9.7318
     9.8014   9.8764   9.9602  10.0638  10.1225  10.2859  10.4780  10.5234
    11.0847  11.0858

          k = 0.0239 0.0000-0.0425 ( 81875 PWs)   bands (ev):

   -56.2766 -56.2766 -56.2765 -56.2765 -56.2737 -56.2737 -56.2736 -56.2736
   -56.2589 -56.2589 -56.2588 -56.2588 -56.2537 -56.2537 -56.2537 -56.2536
   -56.2513 -56.2513 -56.2513 -56.2512 -56.2377 -56.2377 -56.2377 -56.2377
   -56.2256 -56.2256 -56.2256 -56.2256 -56.2219 -56.2219 -56.2219 -56.2219
   -56.2109 -56.2108 -56.2108 -56.2108 -56.2079 -56.2079 -56.2079 -56.2079
   -56.1927 -56.1927 -56.1927 -56.1927 -56.1917 -56.1917 -56.1917 -56.1917
   -56.1908 -56.1908 -56.1907 -56.1907 -56.1846 -56.1846 -56.1846 -56.1846
   -56.1817 -56.1817 -56.1816 -56.1816 -46.9321 -46.9320 -42.0680 -42.0680
   -41.7994 -41.7993 -41.7709 -41.7708 -20.7600 -20.7600 -20.7547 -20.7546
   -20.7546 -20.7543 -10.6429 -10.4806 -10.3602 -10.3292 -10.2987 -10.2855
   -10.2816 -10.2380 -10.2364 -10.1746 -10.1704 -10.1507  -0.0498  -0.0487
     0.2182   0.2483   0.3201   0.3608   0.4262   0.4581   0.6196   0.6851
     0.7693   0.8162   1.0508   1.1271   1.1524   1.3277   1.3309   1.4703
     1.5343   1.6128   1.6253   1.7136   1.7963   1.8215   1.8485   1.9267
     1.9762   2.0860   2.0870   2.1695   2.2922   2.3202   2.3376   2.4216
     2.4707   2.4766   7.1512   7.2197   7.2443   7.3202   7.4111   7.4836
     8.2348   8.8221   8.8680   8.9785   9.1909   9.3330   9.3793   9.6349
     9.7085   9.7164   9.8172  10.0247  10.1368  10.2948  10.3439  10.4068
    10.8538  11.1235

          k = 0.0239 0.0000-0.0170 ( 81860 PWs)   bands (ev):

   -56.2766 -56.2766 -56.2765 -56.2765 -56.2737 -56.2737 -56.2736 -56.2736
   -56.2589 -56.2589 -56.2588 -56.2588 -56.2537 -56.2537 -56.2537 -56.2536
   -56.2513 -56.2513 -56.2513 -56.2512 -56.2377 -56.2377 -56.2377 -56.2376
   -56.2256 -56.2256 -56.2256 -56.2256 -56.2220 -56.2219 -56.2219 -56.2219
   -56.2109 -56.2108 -56.2108 -56.2108 -56.2079 -56.2079 -56.2079 -56.2079
   -56.1927 -56.1927 -56.1927 -56.1927 -56.1917 -56.1917 -56.1917 -56.1917
   -56.1908 -56.1908 -56.1907 -56.1907 -56.1846 -56.1846 -56.1846 -56.1846
   -56.1817 -56.1817 -56.1816 -56.1816 -46.9321 -46.9320 -42.0680 -42.0680
   -41.7994 -41.7993 -41.7709 -41.7708 -20.7600 -20.7599 -20.7546 -20.7546
   -20.7546 -20.7543 -10.6881 -10.5153 -10.3804 -10.3053 -10.2898 -10.2635
   -10.2572 -10.2409 -10.2267 -10.1694 -10.1585 -10.1429  -0.1407  -0.0868
     0.2093   0.2350   0.2911   0.3132   0.4351   0.4776   0.6327   0.7351
     0.8472   0.8506   0.9560   0.9980   1.1716   1.2182   1.2391   1.4148
     1.5300   1.5488   1.6351   1.7301   1.7921   1.8771   1.9062   1.9860
     2.0389   2.1164   2.1544   2.2452   2.3066   2.3362   2.4335   2.4676
     2.5210   2.5598   7.0754   7.2954   7.3274   7.3969   7.4251   7.4725
     7.7994   8.6916   8.8716   9.0148   9.1205   9.2514   9.4094   9.4738
     9.5075   9.6501   9.8331  10.0377  10.0531  10.3825  10.4750  10.5071
    11.0130  11.1260

          k = 0.0239 0.0278 0.0085 ( 81849 PWs)   bands (ev):

   -56.2766 -56.2766 -56.2765 -56.2765 -56.2737 -56.2737 -56.2736 -56.2736
   -56.2589 -56.2589 -56.2588 -56.2588 -56.2537 -56.2537 -56.2537 -56.2536
   -56.2513 -56.2513 -56.2513 -56.2512 -56.2377 -56.2377 -56.2377 -56.2377
   -56.2256 -56.2256 -56.2256 -56.2256 -56.2219 -56.2219 -56.2219 -56.2219
   -56.2109 -56.2108 -56.2108 -56.2108 -56.2079 -56.2079 -56.2079 -56.2079
   -56.1927 -56.1927 -56.1927 -56.1927 -56.1917 -56.1917 -56.1917 -56.1917
   -56.1908 -56.1908 -56.1907 -56.1907 -56.1846 -56.1846 -56.1846 -56.1846
   -56.1817 -56.1817 -56.1816 -56.1816 -46.9321 -46.9320 -42.0680 -42.0680
   -41.7994 -41.7993 -41.7709 -41.7708 -20.7600 -20.7599 -20.7546 -20.7546
   -20.7545 -20.7544 -10.6662 -10.5880 -10.3364 -10.3033 -10.2999 -10.2916
   -10.2336 -10.2102 -10.1958 -10.1954 -10.1656 -10.1505  -0.1002  -0.0549
     0.1897   0.1918   0.3256   0.3260   0.5196   0.5439   0.6199   0.6248
     0.8419   0.9369   1.0241   1.0340   1.1706   1.2471   1.2916   1.3821
     1.4045   1.5352   1.6626   1.6681   1.7329   1.8502   1.8565   1.9973
     2.0156   2.0862   2.1935   2.2020   2.2870   2.3230   2.3715   2.4415
     2.4683   2.5149   7.2248   7.3744   7.4057   7.4269   7.4301   7.4617
     8.0038   8.5300   8.8590   8.9659   9.1127   9.1334   9.3814   9.5288
     9.5887   9.9047  10.0383  10.1809  10.2432  10.5041  10.5986  10.6943
    11.0434  11.1228

          k = 0.0239 0.0278 0.0340 ( 81856 PWs)   bands (ev):

   -56.2766 -56.2766 -56.2765 -56.2765 -56.2737 -56.2737 -56.2736 -56.2736
   -56.2589 -56.2589 -56.2588 -56.2588 -56.2537 -56.2537 -56.2537 -56.2536
   -56.2513 -56.2513 -56.2512 -56.2512 -56.2377 -56.2377 -56.2377 -56.2377
   -56.2256 -56.2256 -56.2256 -56.2256 -56.2219 -56.2219 -56.2219 -56.2219
   -56.2109 -56.2108 -56.2108 -56.2108 -56.2079 -56.2079 -56.2079 -56.2079
   -56.1927 -56.1927 -56.1927 -56.1927 -56.1917 -56.1917 -56.1917 -56.1917
   -56.1908 -56.1907 -56.1907 -56.1907 -56.1846 -56.1846 -56.1846 -56.1846
   -56.1817 -56.1817 -56.1817 -56.1816 -46.9321 -46.9320 -42.0680 -42.0680
   -41.7994 -41.7993 -41.7709 -41.7708 -20.7600 -20.7599 -20.7546 -20.7546
   -20.7545 -20.7544 -10.6352 -10.5615 -10.3342 -10.3098 -10.3068 -10.2940
   -10.2556 -10.2251 -10.2117 -10.2026 -10.1659 -10.1433   0.0268   0.0269
     0.2510   0.2669   0.3566   0.3694   0.5118   0.5408   0.6214   0.6910
     0.8433   0.8807   1.0781   1.0851   1.1022   1.2405   1.3225   1.3582
     1.4242   1.5197   1.5280   1.6314   1.7261   1.8189   1.8270   1.9544
     2.0372   2.0518   2.1127   2.1748   2.2523   2.2851   2.2881   2.3646
     2.3815   2.4122   7.3110   7.3413   7.3758   7.4145   7.4545   7.4822
     8.2853   8.5540   8.9840   9.0127   9.1131   9.4142   9.5065   9.6215
     9.8328   9.9789  10.0964  10.3403  10.4124  10.5555  10.6798  10.7224
    11.0286  11.0804

          k = 0.0239 0.0278 0.0595 ( 81860 PWs)   bands (ev):

   -56.2766 -56.2766 -56.2765 -56.2765 -56.2737 -56.2737 -56.2736 -56.2736
   -56.2589 -56.2589 -56.2588 -56.2588 -56.2537 -56.2537 -56.2537 -56.2536
   -56.2513 -56.2513 -56.2512 -56.2512 -56.2377 -56.2377 -56.2377 -56.2377
   -56.2256 -56.2256 -56.2256 -56.2256 -56.2219 -56.2219 -56.2219 -56.2219
   -56.2109 -56.2108 -56.2108 -56.2108 -56.2079 -56.2079 -56.2079 -56.2079
   -56.1927 -56.1927 -56.1927 -56.1927 -56.1917 -56.1917 -56.1917 -56.1917
   -56.1908 -56.1907 -56.1907 -56.1907 -56.1846 -56.1846 -56.1846 -56.1846
   -56.1817 -56.1817 -56.1817 -56.1816 -46.9321 -46.9320 -42.0680 -42.0680
   -41.7994 -41.7993 -41.7709 -41.7708 -20.7600 -20.7600 -20.7547 -20.7546
   -20.7545 -20.7544 -10.5826 -10.5146 -10.3523 -10.3456 -10.3124 -10.2970
   -10.2626 -10.2371 -10.2284 -10.2065 -10.1676 -10.1495   0.0412   0.0686
     0.2338   0.2759   0.4220   0.4469   0.5785   0.6154   0.6705   0.7054
     0.8294   0.8670   1.0066   1.0641   1.1484   1.2533   1.3154   1.3875
     1.4595   1.5475   1.5777   1.6430   1.6437   1.7495   1.8016   1.9222
     1.9853   2.0256   2.0699   2.1114   2.1691   2.2467   2.2514   2.3285
     2.3354   2.4089   7.2488   7.3034   7.3126   7.4047   7.4182   7.5072
     8.5793   8.5817   9.1255   9.1415   9.2533   9.5647   9.7611   9.8288
     9.8670   9.9737  10.0748  10.1761  10.2761  10.3853  10.4807  10.7779
    11.1175  11.2069

          k = 0.0239 0.0278-0.0680 ( 81887 PWs)   bands (ev):

   -56.2766 -56.2766 -56.2765 -56.2765 -56.2737 -56.2737 -56.2736 -56.2736
   -56.2589 -56.2589 -56.2588 -56.2588 -56.2537 -56.2537 -56.2537 -56.2536
   -56.2513 -56.2513 -56.2512 -56.2512 -56.2377 -56.2377 -56.2377 -56.2377
   -56.2256 -56.2256 -56.2256 -56.2256 -56.2219 -56.2219 -56.2219 -56.2219
   -56.2109 -56.2108 -56.2108 -56.2108 -56.2079 -56.2079 -56.2079 -56.2079
   -56.1927 -56.1927 -56.1927 -56.1927 -56.1917 -56.1917 -56.1917 -56.1917
   -56.1908 -56.1908 -56.1907 -56.1907 -56.1846 -56.1846 -56.1846 -56.1846
   -56.1817 -56.1817 -56.1817 -56.1816 -46.9321 -46.9320 -42.0680 -42.0680
   -41.7994 -41.7993 -41.7709 -41.7708 -20.7600 -20.7600 -20.7547 -20.7546
   -20.7545 -20.7544 -10.5668 -10.4983 -10.3693 -10.3558 -10.3141 -10.2984
   -10.2503 -10.2375 -10.2359 -10.1875 -10.1774 -10.1664  -0.0238  -0.0172
     0.2538   0.2935   0.3583   0.3886   0.5831   0.6079   0.6306   0.7092
     0.8329   0.8374   1.0973   1.1208   1.1813   1.3109   1.3168   1.3953
     1.4952   1.5515   1.5802   1.6222   1.7329   1.8207   1.8860   1.9049
     1.9683   2.0383   2.0385   2.1123   2.1195   2.2337   2.2542   2.3112
     2.3995   2.4501   7.1928   7.2559   7.2837   7.3716   7.3722   7.4893
     8.6467   8.6869   9.0334   9.1881   9.3568   9.4094   9.6131   9.6626
     9.7609   9.7872   9.9330  10.2767  10.3726  10.4928  10.5039  10.7768
    10.9063  11.0104

          k = 0.0239 0.0278-0.0425 ( 81874 PWs)   bands (ev):

   -56.2766 -56.2766 -56.2765 -56.2765 -56.2737 -56.2737 -56.2736 -56.2736
   -56.2589 -56.2589 -56.2588 -56.2588 -56.2537 -56.2537 -56.2537 -56.2536
   -56.2513 -56.2513 -56.2513 -56.2512 -56.2377 -56.2377 -56.2377 -56.2377
   -56.2256 -56.2256 -56.2256 -56.2256 -56.2219 -56.2219 -56.2219 -56.2219
   -56.2109 -56.2108 -56.2108 -56.2108 -56.2079 -56.2079 -56.2079 -56.2079
   -56.1927 -56.1927 -56.1927 -56.1927 -56.1917 -56.1917 -56.1917 -56.1917
   -56.1908 -56.1908 -56.1907 -56.1907 -56.1846 -56.1846 -56.1846 -56.1846
   -56.1817 -56.1817 -56.1816 -56.1816 -46.9321 -46.9320 -42.0680 -42.0680
   -41.7994 -41.7993 -41.7709 -41.7708 -20.7600 -20.7600 -20.7547 -20.7546
   -20.7545 -20.7544 -10.6142 -10.5402 -10.3397 -10.3331 -10.3017 -10.2927
   -10.2490 -10.2240 -10.2124 -10.1855 -10.1851 -10.1710  -0.0854  -0.0741
     0.2354   0.2421   0.3289   0.3499   0.4524   0.4544   0.5369   0.5701
     0.8665   0.9531   1.1048   1.2003   1.2586   1.2983   1.3651   1.4537
     1.5498   1.5737   1.6252   1.7137   1.7608   1.8040   1.8774   1.9033
     1.9325   2.0596   2.0924   2.1327   2.2348   2.2958   2.3544   2.3819
     2.4533   2.4883   7.2203   7.2540   7.2655   7.3459   7.3656   7.4349
     8.4393   8.7256   8.8851   8.9142   9.2269   9.2409   9.5371   9.5874
     9.7258   9.7609   9.9663  10.0791  10.1887  10.3183  10.3662  10.4509
    10.9665  10.9753

          k = 0.0239 0.0278-0.0170 ( 81882 PWs)   bands (ev):

   -56.2766 -56.2766 -56.2765 -56.2765 -56.2737 -56.2737 -56.2736 -56.2736
   -56.2589 -56.2589 -56.2588 -56.2588 -56.2537 -56.2537 -56.2537 -56.2536
   -56.2513 -56.2513 -56.2513 -56.2512 -56.2377 -56.2377 -56.2377 -56.2377
   -56.2256 -56.2256 -56.2256 -56.2256 -56.2220 -56.2219 -56.2219 -56.2219
   -56.2109 -56.2108 -56.2108 -56.2108 -56.2079 -56.2079 -56.2079 -56.2079
   -56.1927 -56.1927 -56.1927 -56.1927 -56.1917 -56.1917 -56.1917 -56.1917
   -56.1908 -56.1908 -56.1907 -56.1907 -56.1846 -56.1846 -56.1846 -56.1846
   -56.1817 -56.1817 -56.1816 -56.1816 -46.9321 -46.9320 -42.0680 -42.0680
   -41.7994 -41.7993 -41.7709 -41.7708 -20.7600 -20.7599 -20.7546 -20.7546
   -20.7545 -20.7544 -10.6579 -10.5796 -10.3388 -10.3137 -10.2945 -10.2818
   -10.2324 -10.2115 -10.2060 -10.1860 -10.1721 -10.1637  -0.1278  -0.0935
     0.1746   0.1785   0.2906   0.3158   0.4717   0.4933   0.5426   0.5722
     0.9002   0.9182   1.0783   1.1341   1.2262   1.2939   1.3019   1.3836
     1.5505   1.5654   1.6795   1.6802   1.7727   1.8417   1.8723   1.9732
     1.9738   2.0731   2.1400   2.1444   2.3285   2.3757   2.4002   2.4722
     2.5081   2.5126   7.1887   7.3140   7.3311   7.3730   7.4085   7.4368
     8.0686   8.5807   8.8647   8.8663   9.1001   9.1716   9.5552   9.5736
     9.5948   9.7715   9.8654  10.0107  10.1414  10.2984  10.3445  10.4068
    11.0313  11.0552

          k = 0.0478 0.0000 0.0170 ( 81866 PWs)   bands (ev):

   -56.2766 -56.2766 -56.2765 -56.2765 -56.2737 -56.2737 -56.2736 -56.2736
   -56.2589 -56.2589 -56.2588 -56.2588 -56.2537 -56.2537 -56.2537 -56.2536
   -56.2513 -56.2513 -56.2512 -56.2512 -56.2377 -56.2377 -56.2377 -56.2377
   -56.2256 -56.2256 -56.2256 -56.2256 -56.2219 -56.2219 -56.2219 -56.2219
   -56.2109 -56.2108 -56.2108 -56.2108 -56.2079 -56.2079 -56.2079 -56.2079
   -56.1927 -56.1927 -56.1927 -56.1927 -56.1917 -56.1917 -56.1917 -56.1917
   -56.1908 -56.1908 -56.1907 -56.1907 -56.1846 -56.1846 -56.1846 -56.1846
   -56.1817 -56.1817 -56.1816 -56.1816 -46.9321 -46.9320 -42.0680 -42.0680
   -41.7994 -41.7993 -41.7709 -41.7708 -20.7600 -20.7599 -20.7547 -20.7546
   -20.7545 -20.7544 -10.6265 -10.4902 -10.3657 -10.3567 -10.3061 -10.2840
   -10.2616 -10.2523 -10.2097 -10.1931 -10.1556 -10.1486  -0.0429   0.1233
     0.3061   0.3295   0.3698   0.4152   0.4523   0.5750   0.6879   0.7107
     0.7735   0.8660   0.8849   0.9688   1.0641   1.1935   1.2726   1.4332
     1.4544   1.5537   1.6161   1.6325   1.6923   1.9014   1.9544   1.9666
     1.9714   1.9970   2.1104   2.1140   2.1735   2.2053   2.3418   2.4330
     2.4358   2.4923   7.2109   7.3037   7.3531   7.3825   7.3998   7.4383
     8.3736   8.7920   8.9303   8.9962   9.0413   9.1602   9.5313   9.7909
     9.9295  10.0391  10.1256  10.2153  10.4095  10.5478  10.5537  10.8468
    10.9184  11.1676

          k = 0.0478 0.0000 0.0425 ( 81824 PWs)   bands (ev):

   -56.2766 -56.2766 -56.2765 -56.2765 -56.2737 -56.2737 -56.2736 -56.2736
   -56.2589 -56.2589 -56.2588 -56.2588 -56.2537 -56.2537 -56.2537 -56.2536
   -56.2513 -56.2513 -56.2512 -56.2512 -56.2377 -56.2377 -56.2377 -56.2377
   -56.2256 -56.2256 -56.2256 -56.2256 -56.2219 -56.2219 -56.2219 -56.2219
   -56.2109 -56.2108 -56.2108 -56.2108 -56.2079 -56.2079 -56.2079 -56.2079
   -56.1927 -56.1927 -56.1927 -56.1927 -56.1917 -56.1917 -56.1917 -56.1917
   -56.1908 -56.1907 -56.1907 -56.1907 -56.1846 -56.1846 -56.1846 -56.1846
   -56.1817 -56.1817 -56.1817 -56.1816 -46.9321 -46.9320 -42.0680 -42.0680
   -41.7994 -41.7993 -41.7709 -41.7708 -20.7600 -20.7599 -20.7547 -20.7547
   -20.7545 -20.7544 -10.5879 -10.4760 -10.3732 -10.3434 -10.3200 -10.2900
   -10.2806 -10.2530 -10.2297 -10.1984 -10.1565 -10.1480   0.0722   0.1024
     0.2903   0.2925   0.4661   0.4821   0.5214   0.5638   0.6669   0.7478
     0.7486   0.8773   1.0055   1.0416   1.0771   1.0963   1.2010   1.3697
     1.3993   1.5142   1.5341   1.7023   1.7506   1.8900   1.9046   1.9530
     1.9715   2.0100   2.0637   2.1215   2.1254   2.2446   2.2895   2.3211
     2.3778   2.4667   7.2033   7.2515   7.3786   7.3852   7.4187   7.4461
     8.6757   8.7187   8.8977   8.9947   9.0878   9.4274   9.4998   9.8832
    10.0113  10.0520  10.1133  10.2250  10.2772  10.5113  10.5606  10.7773
    10.9443  11.2957

          k = 0.0478 0.0000 0.0680 ( 81886 PWs)   bands (ev):

   -56.2766 -56.2766 -56.2765 -56.2765 -56.2737 -56.2737 -56.2736 -56.2736
   -56.2589 -56.2589 -56.2588 -56.2588 -56.2537 -56.2537 -56.2537 -56.2536
   -56.2513 -56.2513 -56.2512 -56.2512 -56.2377 -56.2377 -56.2377 -56.2377
   -56.2256 -56.2256 -56.2256 -56.2256 -56.2219 -56.2219 -56.2219 -56.2219
   -56.2109 -56.2108 -56.2108 -56.2108 -56.2079 -56.2079 -56.2079 -56.2079
   -56.1927 -56.1927 -56.1927 -56.1927 -56.1917 -56.1917 -56.1917 -56.1917
   -56.1908 -56.1908 -56.1907 -56.1907 -56.1846 -56.1846 -56.1846 -56.1846
   -56.1817 -56.1817 -56.1817 -56.1816 -46.9321 -46.9320 -42.0680 -42.0680
   -41.7994 -41.7993 -41.7709 -41.7708 -20.7600 -20.7599 -20.7548 -20.7547
   -20.7545 -20.7544 -10.5398 -10.4480 -10.3706 -10.3598 -10.3195 -10.2992
   -10.2796 -10.2748 -10.2606 -10.1881 -10.1619 -10.1603  -0.0105   0.0673
     0.2321   0.2564   0.4233   0.4441   0.5575   0.5801   0.6650   0.7165
     0.7264   0.8814   0.9056   1.0390   1.1384   1.3267   1.3406   1.4193
     1.4209   1.5410   1.6483   1.7880   1.8235   1.8501   1.9106   1.9526
     1.9925   2.0050   2.0791   2.1054   2.1293   2.1898   2.1959   2.2345
     2.3886   2.4961   7.1134   7.1870   7.3330   7.3562   7.3860   7.4172
     8.6928   8.8756   8.9999   9.0071   9.2904   9.3783   9.5373   9.6161
     9.6556   9.7760  10.0305  10.0887  10.1626  10.2434  10.3768  10.4317
    11.0842  11.2199

          k = 0.0478 0.0000-0.0595 ( 81952 PWs)   bands (ev):

   -56.2766 -56.2766 -56.2765 -56.2765 -56.2737 -56.2737 -56.2736 -56.2736
   -56.2589 -56.2589 -56.2588 -56.2588 -56.2537 -56.2537 -56.2537 -56.2536
   -56.2513 -56.2513 -56.2513 -56.2512 -56.2377 -56.2377 -56.2377 -56.2377
   -56.2256 -56.2256 -56.2256 -56.2256 -56.2219 -56.2219 -56.2219 -56.2219
   -56.2109 -56.2108 -56.2108 -56.2108 -56.2079 -56.2079 -56.2079 -56.2079
   -56.1927 -56.1927 -56.1927 -56.1927 -56.1917 -56.1917 -56.1917 -56.1917
   -56.1908 -56.1908 -56.1907 -56.1907 -56.1846 -56.1846 -56.1846 -56.1846
   -56.1817 -56.1817 -56.1816 -56.1816 -46.9321 -46.9320 -42.0680 -42.0680
   -41.7994 -41.7993 -41.7709 -41.7708 -20.7600 -20.7600 -20.7548 -20.7547
   -20.7545 -20.7544 -10.5469 -10.4263 -10.3764 -10.3556 -10.3118 -10.3045
   -10.2936 -10.2586 -10.2575 -10.1875 -10.1740 -10.1685  -0.0546  -0.0361
     0.1820   0.2240   0.3591   0.3730   0.4550   0.4720   0.5436   0.6383
     0.7463   0.9416   1.0988   1.1432   1.2442   1.3722   1.3823   1.5073
     1.5200   1.6874   1.7395   1.7796   1.7908   1.8233   1.8323   1.9119
     1.9293   2.0386   2.1051   2.1768   2.1991   2.1991   2.2649   2.3214
     2.4478   2.4759   7.0949   7.1844   7.2692   7.2697   7.2992   7.3802
     8.6233   8.7679   8.9617   9.0738   9.1999   9.2684   9.3933   9.4252
     9.5843   9.7438   9.8096   9.9372   9.9753  10.0719  10.2746  10.4552
    11.0159  11.2165

          k = 0.0478 0.0000-0.0340 ( 81911 PWs)   bands (ev):

   -56.2766 -56.2766 -56.2765 -56.2765 -56.2737 -56.2737 -56.2736 -56.2736
   -56.2589 -56.2589 -56.2588 -56.2588 -56.2537 -56.2537 -56.2537 -56.2536
   -56.2513 -56.2513 -56.2513 -56.2512 -56.2377 -56.2377 -56.2377 -56.2377
   -56.2256 -56.2256 -56.2256 -56.2256 -56.2220 -56.2219 -56.2219 -56.2219
   -56.2109 -56.2108 -56.2108 -56.2108 -56.2079 -56.2079 -56.2079 -56.2079
   -56.1927 -56.1927 -56.1927 -56.1927 -56.1917 -56.1917 -56.1917 -56.1917
   -56.1908 -56.1908 -56.1907 -56.1907 -56.1846 -56.1846 -56.1846 -56.1846
   -56.1817 -56.1817 -56.1816 -56.1816 -46.9321 -46.9320 -42.0680 -42.0680
   -41.7994 -41.7993 -41.7709 -41.7708 -20.7600 -20.7599 -20.7548 -20.7547
   -20.7545 -20.7544 -10.5972 -10.4526 -10.3574 -10.3311 -10.3254 -10.2946
   -10.2842 -10.2495 -10.2292 -10.1992 -10.1677 -10.1665  -0.1324  -0.0027
     0.1661   0.2616   0.3493   0.3743   0.3895   0.4188   0.4807   0.5262
     0.6593   0.9613   1.1611   1.1831   1.3452   1.3681   1.4084   1.4660
     1.5683   1.7029   1.7263   1.7720   1.8188   1.8244   1.8633   1.8726
     1.9608   2.0161   2.0492   2.1409   2.2486   2.3492   2.3621   2.4058
     2.4306   2.5103   7.1435   7.1712   7.2219   7.2915   7.2931   7.3700
     8.3570   8.7634   8.8428   9.1202   9.1404   9.2655   9.3745   9.5604
     9.6265   9.6595   9.7735   9.9156   9.9767  10.0139  10.1867  10.2015
    10.8459  11.2944

          k = 0.0478 0.0000-0.0085 ( 81863 PWs)   bands (ev):

   -56.2766 -56.2766 -56.2765 -56.2765 -56.2737 -56.2737 -56.2736 -56.2736
   -56.2589 -56.2589 -56.2588 -56.2588 -56.2537 -56.2537 -56.2537 -56.2536
   -56.2513 -56.2513 -56.2512 -56.2512 -56.2377 -56.2377 -56.2377 -56.2377
   -56.2256 -56.2256 -56.2256 -56.2256 -56.2219 -56.2219 -56.2219 -56.2219
   -56.2109 -56.2108 -56.2108 -56.2108 -56.2079 -56.2079 -56.2079 -56.2079
   -56.1927 -56.1927 -56.1927 -56.1927 -56.1917 -56.1917 -56.1917 -56.1917
   -56.1908 -56.1908 -56.1907 -56.1907 -56.1846 -56.1846 -56.1846 -56.1846
   -56.1817 -56.1817 -56.1816 -56.1816 -46.9321 -46.9320 -42.0680 -42.0680
   -41.7994 -41.7993 -41.7709 -41.7708 -20.7600 -20.7599 -20.7547 -20.7547
   -20.7546 -20.7544 -10.6302 -10.4822 -10.3602 -10.3414 -10.3114 -10.2778
   -10.2713 -10.2576 -10.2108 -10.1893 -10.1586 -10.1583  -0.1349   0.0704
     0.2398   0.2898   0.3025   0.3872   0.4340   0.4730   0.5530   0.6103
     0.6878   0.8877   0.9076   1.1543   1.2140   1.3407   1.3665   1.4541
     1.5453   1.6117   1.6867   1.7107   1.7777   1.8532   1.8963   1.9371
     1.9686   2.0199   2.0986   2.1955   2.2403   2.2847   2.3496   2.4028
     2.4780   2.5023   7.1541   7.2617   7.2654   7.3505   7.3623   7.4033
     8.2321   8.8084   9.0125   9.0803   9.1143   9.2008   9.2794   9.5831
     9.6805   9.8595   9.9618  10.0078  10.0788  10.2607  10.3411  10.3830
    10.8420  11.1403

          k = 0.0478 0.0278 0.0170 ( 81858 PWs)   bands (ev):

   -56.2766 -56.2766 -56.2765 -56.2765 -56.2737 -56.2737 -56.2736 -56.2736
   -56.2589 -56.2589 -56.2588 -56.2588 -56.2537 -56.2537 -56.2537 -56.2536
   -56.2513 -56.2513 -56.2512 -56.2512 -56.2377 -56.2377 -56.2377 -56.2377
   -56.2256 -56.2256 -56.2256 -56.2256 -56.2219 -56.2219 -56.2219 -56.2219
   -56.2109 -56.2108 -56.2108 -56.2108 -56.2079 -56.2079 -56.2079 -56.2079
   -56.1927 -56.1927 -56.1927 -56.1927 -56.1917 -56.1917 -56.1917 -56.1917
   -56.1908 -56.1907 -56.1907 -56.1907 -56.1846 -56.1846 -56.1846 -56.1846
   -56.1817 -56.1817 -56.1817 -56.1816 -46.9321 -46.9320 -42.0680 -42.0680
   -41.7994 -41.7993 -41.7709 -41.7708 -20.7600 -20.7599 -20.7547 -20.7547
   -20.7545 -20.7544 -10.6017 -10.5388 -10.3585 -10.3308 -10.3147 -10.2907
   -10.2545 -10.2362 -10.2109 -10.2009 -10.1602 -10.1521  -0.0269   0.0530
     0.2554   0.2887   0.3850   0.3869   0.5234   0.5638   0.6230   0.6396
     0.8105   0.9612   1.0270   1.0277   1.1836   1.1918   1.3108   1.4225
     1.5091   1.5096   1.5914   1.6900   1.7218   1.7955   1.8454   1.8521
     1.9485   2.0043   2.1099   2.1146   2.2476   2.2658   2.3198   2.3396
     2.4077   2.4737   7.2547   7.3166   7.3536   7.3896   7.4037   7.4598
     8.4564   8.6084   8.9997   9.1671   9.1756   9.3180   9.5357   9.7719
     9.8820  10.0877  10.1136  10.1916  10.2230  10.4364  10.5560  10.6613
    10.9852  11.1514

          k = 0.0478 0.0278 0.0425 ( 81879 PWs)   bands (ev):

   -56.2766 -56.2766 -56.2765 -56.2765 -56.2737 -56.2737 -56.2736 -56.2736
   -56.2589 -56.2589 -56.2588 -56.2588 -56.2537 -56.2537 -56.2537 -56.2536
   -56.2513 -56.2513 -56.2512 -56.2512 -56.2377 -56.2377 -56.2377 -56.2377
   -56.2256 -56.2256 -56.2256 -56.2256 -56.2219 -56.2219 -56.2219 -56.2219
   -56.2109 -56.2108 -56.2108 -56.2108 -56.2079 -56.2079 -56.2079 -56.2079
   -56.1927 -56.1927 -56.1927 -56.1927 -56.1917 -56.1917 -56.1917 -56.1917
   -56.1908 -56.1907 -56.1907 -56.1907 -56.1846 -56.1846 -56.1846 -56.1846
   -56.1817 -56.1817 -56.1817 -56.1816 -46.9321 -46.9320 -42.0680 -42.0680
   -41.7994 -41.7993 -41.7709 -41.7708 -20.7600 -20.7599 -20.7547 -20.7547
   -20.7545 -20.7544 -10.5662 -10.5128 -10.3724 -10.3427 -10.3021 -10.3005
   -10.2695 -10.2490 -10.2192 -10.2168 -10.1565 -10.1491   0.0348   0.0412
     0.2921   0.2952   0.4261   0.4288   0.6050   0.6134   0.6589   0.7397
     0.8239   0.8351   1.0113   1.0357   1.0975   1.1547   1.3361   1.4153
     1.4776   1.5651   1.5966   1.6644   1.6843   1.7602   1.8349   1.8530
     1.9227   1.9974   2.0744   2.1493   2.1867   2.2518   2.2620   2.2915
     2.3950   2.3980   7.2281   7.3122   7.3147   7.3967   7.4374   7.4780
     8.5865   8.6031   9.0892   9.0974   9.3355   9.5591   9.6356   9.8197
     9.9042   9.9660  10.0795  10.2251  10.3064  10.3076  10.5708  10.7799
    11.0559  11.2048

          k = 0.0478 0.0278 0.0680 ( 81886 PWs)   bands (ev):

   -56.2766 -56.2766 -56.2765 -56.2765 -56.2737 -56.2737 -56.2736 -56.2736
   -56.2589 -56.2589 -56.2588 -56.2588 -56.2537 -56.2537 -56.2537 -56.2536
   -56.2513 -56.2513 -56.2512 -56.2512 -56.2377 -56.2377 -56.2377 -56.2377
   -56.2256 -56.2256 -56.2256 -56.2256 -56.2219 -56.2219 -56.2219 -56.2219
   -56.2109 -56.2108 -56.2108 -56.2108 -56.2079 -56.2079 -56.2079 -56.2079
   -56.1927 -56.1927 -56.1927 -56.1927 -56.1917 -56.1917 -56.1917 -56.1917
   -56.1908 -56.1907 -56.1907 -56.1907 -56.1846 -56.1846 -56.1846 -56.1846
   -56.1817 -56.1817 -56.1817 -56.1816 -46.9321 -46.9320 -42.0680 -42.0680
   -41.7994 -41.7993 -41.7709 -41.7708 -20.7600 -20.7600 -20.7548 -20.7547
   -20.7545 -20.7544 -10.5197 -10.4732 -10.3763 -10.3617 -10.3241 -10.3182
   -10.2639 -10.2527 -10.2386 -10.2112 -10.1621 -10.1604  -0.0690  -0.0470
     0.2870   0.3428   0.3880   0.4266   0.5572   0.6090   0.7323   0.7482
     0.8107   0.8970   0.9287   0.9582   1.0964   1.2733   1.4599   1.4812
     1.5009   1.6287   1.6609   1.7299   1.7329   1.7653   1.8537   1.8919
     1.9660   2.0062   2.0351   2.0398   2.1407   2.2230   2.2776   2.3046
     2.3649   2.4127   7.1311   7.2362   7.2752   7.3789   7.4103   7.4439
     8.6851   8.7592   8.9930   9.0112   9.3805   9.4267   9.5041   9.5086
     9.8318   9.8778   9.9525  10.1550  10.3648  10.3656  10.5896  10.8015
    11.0441  11.1907

          k = 0.0478 0.0278-0.0595 ( 81897 PWs)   bands (ev):

   -56.2766 -56.2766 -56.2765 -56.2765 -56.2737 -56.2737 -56.2736 -56.2736
   -56.2589 -56.2589 -56.2588 -56.2588 -56.2537 -56.2537 -56.2537 -56.2536
   -56.2513 -56.2513 -56.2512 -56.2512 -56.2377 -56.2377 -56.2377 -56.2377
   -56.2256 -56.2256 -56.2256 -56.2256 -56.2219 -56.2219 -56.2219 -56.2219
   -56.2109 -56.2108 -56.2108 -56.2108 -56.2079 -56.2079 -56.2079 -56.2079
   -56.1927 -56.1927 -56.1927 -56.1927 -56.1917 -56.1917 -56.1917 -56.1917
   -56.1908 -56.1908 -56.1907 -56.1907 -56.1846 -56.1846 -56.1846 -56.1846
   -56.1817 -56.1817 -56.1816 -56.1816 -46.9321 -46.9320 -42.0680 -42.0680
   -41.7994 -41.7993 -41.7709 -41.7708 -20.7600 -20.7600 -20.7548 -20.7547
   -20.7545 -20.7544 -10.5238 -10.4664 -10.3711 -10.3585 -10.3240 -10.3204
   -10.2594 -10.2455 -10.2360 -10.2019 -10.1786 -10.1754  -0.1422  -0.1288
     0.2677   0.2770   0.3376   0.3550   0.4876   0.4879   0.6203   0.6733
     0.8440   0.9517   1.1111   1.1217   1.1918   1.2789   1.4856   1.4952
     1.5493   1.6479   1.6782   1.7044   1.7555   1.7875   1.8787   1.9356
     1.9767   2.0252   2.1229   2.1355   2.1780   2.2370   2.3249   2.3320
     2.4043   2.4069   7.0762   7.1504   7.2789   7.3258   7.3514   7.3797
     8.7022   8.7273   8.9169   8.9732   9.1698   9.2050   9.3486   9.3601
     9.5897   9.7201  10.0825  10.1647  10.3843  10.4674  10.5668  10.5886
    10.9186  11.0520

          k = 0.0478 0.0278-0.0340 ( 81912 PWs)   bands (ev):

   -56.2766 -56.2766 -56.2765 -56.2765 -56.2737 -56.2737 -56.2736 -56.2736
   -56.2589 -56.2589 -56.2588 -56.2588 -56.2537 -56.2537 -56.2537 -56.2536
   -56.2513 -56.2513 -56.2513 -56.2512 -56.2377 -56.2377 -56.2377 -56.2377
   -56.2256 -56.2256 -56.2256 -56.2256 -56.2220 -56.2219 -56.2219 -56.2219
   -56.2109 -56.2108 -56.2108 -56.2108 -56.2079 -56.2079 -56.2079 -56.2079
   -56.1927 -56.1927 -56.1927 -56.1927 -56.1917 -56.1917 -56.1917 -56.1917
   -56.1908 -56.1908 -56.1907 -56.1907 -56.1846 -56.1846 -56.1846 -56.1846
   -56.1817 -56.1817 -56.1816 -56.1816 -46.9321 -46.9320 -42.0680 -42.0680
   -41.7994 -41.7993 -41.7709 -41.7708 -20.7600 -20.7599 -20.7548 -20.7547
   -20.7545 -20.7544 -10.5715 -10.5056 -10.3459 -10.3332 -10.3177 -10.3010
   -10.2674 -10.2295 -10.2135 -10.2117 -10.1797 -10.1777  -0.1679  -0.1087
     0.2271   0.2657   0.3281   0.3341   0.4264   0.4447   0.5009   0.5021
     0.9237   1.0233   1.1212   1.1458   1.3112   1.4198   1.4429   1.4804
     1.5685   1.6030   1.6259   1.6752   1.7454   1.7562   1.9429   1.9506
     1.9937   2.0351   2.0865   2.1120   2.3154   2.3416   2.3591   2.3865
     2.4001   2.4448   7.1288   7.1538   7.2370   7.3338   7.3422   7.3593
     8.5233   8.7421   8.7967   8.9691   9.1317   9.1674   9.3559   9.4613
     9.5513   9.6095  10.0683  10.1706  10.2462  10.2935  10.3864  10.4200
    10.8588  11.1289

          k = 0.0478 0.0278-0.0085 ( 81887 PWs)   bands (ev):

   -56.2766 -56.2766 -56.2765 -56.2765 -56.2737 -56.2737 -56.2736 -56.2736
   -56.2589 -56.2589 -56.2588 -56.2588 -56.2537 -56.2537 -56.2537 -56.2536
   -56.2513 -56.2513 -56.2513 -56.2512 -56.2377 -56.2377 -56.2377 -56.2377
   -56.2256 -56.2256 -56.2256 -56.2256 -56.2219 -56.2219 -56.2219 -56.2219
   -56.2109 -56.2108 -56.2108 -56.2108 -56.2079 -56.2079 -56.2079 -56.2079
   -56.1927 -56.1927 -56.1927 -56.1927 -56.1917 -56.1917 -56.1917 -56.1917
   -56.1908 -56.1908 -56.1907 -56.1907 -56.1846 -56.1846 -56.1846 -56.1846
   -56.1817 -56.1817 -56.1816 -56.1816 -46.9321 -46.9320 -42.0680 -42.0680
   -41.7994 -41.7993 -41.7709 -41.7708 -20.7600 -20.7599 -20.7547 -20.7547
   -20.7545 -20.7544 -10.6038 -10.5362 -10.3404 -10.3235 -10.3208 -10.2944
   -10.2606 -10.2264 -10.2080 -10.2005 -10.1690 -10.1652  -0.1234  -0.0283
     0.2232   0.2684   0.3452   0.3786   0.4292   0.4618   0.5172   0.5223
     0.9004   1.0050   1.0796   1.0954   1.2133   1.3792   1.3797   1.4654
     1.5651   1.5870   1.6127   1.6632   1.7303   1.7659   1.9115   1.9175
     2.0155   2.0273   2.0914   2.1239   2.2456   2.2827   2.3579   2.3995
     2.4434   2.4933   7.2105   7.2435   7.2858   7.3613   7.3827   7.3983
     8.4156   8.7301   8.9289   8.9491   9.0484   9.1509   9.6006   9.6752
     9.7332   9.8703   9.9210  10.0848  10.1299  10.3272  10.3516  10.4875
    10.9122  11.0533

          k =-0.0718 0.0000-0.0255 ( 81844 PWs)   bands (ev):

   -56.2766 -56.2766 -56.2765 -56.2765 -56.2737 -56.2737 -56.2736 -56.2736
   -56.2589 -56.2589 -56.2588 -56.2588 -56.2537 -56.2537 -56.2537 -56.2536
   -56.2513 -56.2513 -56.2512 -56.2512 -56.2377 -56.2377 -56.2377 -56.2377
   -56.2256 -56.2256 -56.2256 -56.2256 -56.2219 -56.2219 -56.2219 -56.2219
   -56.2109 -56.2108 -56.2108 -56.2108 -56.2079 -56.2079 -56.2079 -56.2079
   -56.1927 -56.1927 -56.1927 -56.1927 -56.1917 -56.1917 -56.1917 -56.1917
   -56.1908 -56.1907 -56.1907 -56.1907 -56.1846 -56.1846 -56.1846 -56.1846
   -56.1817 -56.1817 -56.1817 -56.1816 -46.9321 -46.9320 -42.0680 -42.0680
   -41.7994 -41.7993 -41.7709 -41.7708 -20.7600 -20.7599 -20.7547 -20.7547
   -20.7545 -20.7544 -10.5349 -10.5349 -10.3477 -10.3477 -10.3236 -10.3236
   -10.2699 -10.2699 -10.1917 -10.1917 -10.1606 -10.1606   0.0663   0.0663
     0.3785   0.3785   0.4253   0.4253   0.5085   0.5085   0.7340   0.7340
     0.8375   0.8375   1.0044   1.0044   1.1202   1.1202   1.1471   1.1471
     1.5898   1.5898   1.6748   1.6748   1.7172   1.7172   1.8369   1.8369
     2.0447   2.0447   2.0616   2.0616   2.1977   2.1977   2.3645   2.3645
     2.4209   2.4209   7.2736   7.2737   7.3124   7.3124   7.4276   7.4277
     8.7477   8.7478   8.9071   8.9071   9.2883   9.2884   9.8002   9.8002
    10.0613  10.0613  10.1566  10.1566  10.3743  10.3743  10.7163  10.7163
    11.1703  11.1704

          k =-0.0718 0.0000-0.0000 ( 81827 PWs)   bands (ev):

   -56.2766 -56.2766 -56.2765 -56.2765 -56.2737 -56.2737 -56.2736 -56.2736
   -56.2589 -56.2589 -56.2588 -56.2588 -56.2537 -56.2537 -56.2537 -56.2536
   -56.2513 -56.2513 -56.2512 -56.2512 -56.2377 -56.2377 -56.2377 -56.2377
   -56.2256 -56.2256 -56.2256 -56.2256 -56.2219 -56.2219 -56.2219 -56.2219
   -56.2109 -56.2108 -56.2108 -56.2108 -56.2079 -56.2079 -56.2079 -56.2079
   -56.1927 -56.1927 -56.1927 -56.1927 -56.1917 -56.1917 -56.1917 -56.1917
   -56.1908 -56.1908 -56.1907 -56.1907 -56.1846 -56.1846 -56.1846 -56.1846
   -56.1817 -56.1817 -56.1816 -56.1816 -46.9321 -46.9320 -42.0680 -42.0680
   -41.7994 -41.7993 -41.7709 -41.7708 -20.7600 -20.7599 -20.7548 -20.7547
   -20.7545 -20.7544 -10.5431 -10.5011 -10.3522 -10.3382 -10.3292 -10.3052
   -10.2943 -10.2740 -10.2081 -10.1865 -10.1675 -10.1589  -0.0528   0.1314
     0.2953   0.3333   0.4004   0.4535   0.4694   0.5617   0.5890   0.6207
     0.7401   0.9039   0.9378   1.1251   1.1558   1.2311   1.2728   1.3197
     1.5044   1.6926   1.7036   1.7174   1.7387   1.7521   1.8057   1.9372
     2.0131   2.0398   2.0759   2.1201   2.1281   2.2284   2.3139   2.3438
     2.4037   2.4377   7.2006   7.2586   7.2796   7.3002   7.4021   7.4121
     8.6681   8.8463   8.9063   9.0442   9.2780   9.4070   9.4570   9.6249
     9.9048   9.9104   9.9408  10.0788  10.2815  10.2918  10.4504  10.4747
    11.1021  11.1511

          k =-0.0718 0.0000 0.0255 ( 81950 PWs)   bands (ev):

   -56.2766 -56.2766 -56.2765 -56.2765 -56.2737 -56.2737 -56.2736 -56.2736
   -56.2589 -56.2589 -56.2588 -56.2588 -56.2537 -56.2537 -56.2537 -56.2536
   -56.2513 -56.2513 -56.2513 -56.2512 -56.2377 -56.2377 -56.2377 -56.2377
   -56.2256 -56.2256 -56.2256 -56.2256 -56.2219 -56.2219 -56.2219 -56.2219
   -56.2109 -56.2108 -56.2108 -56.2108 -56.2079 -56.2079 -56.2079 -56.2079
   -56.1927 -56.1927 -56.1927 -56.1927 -56.1917 -56.1917 -56.1917 -56.1917
   -56.1908 -56.1908 -56.1907 -56.1907 -56.1846 -56.1846 -56.1846 -56.1846
   -56.1817 -56.1817 -56.1816 -56.1816 -46.9321 -46.9320 -42.0680 -42.0680
   -41.7994 -41.7993 -41.7709 -41.7708 -20.7600 -20.7599 -20.7548 -20.7547
   -20.7545 -20.7544 -10.5216 -10.4643 -10.3653 -10.3309 -10.3301 -10.3064
   -10.3005 -10.2712 -10.2343 -10.1982 -10.1739 -10.1646  -0.1114   0.0323
     0.2005   0.2547   0.3445   0.3729   0.4200   0.4695   0.5560   0.6557
     0.6967   0.9259   1.0629   1.1201   1.2821   1.3306   1.4530   1.5580
     1.5701   1.6562   1.6766   1.7261   1.7860   1.7945   1.8676   1.9731
     2.0031   2.0432   2.0831   2.1349   2.1638   2.2492   2.2528   2.3453
     2.3858   2.4977   7.1306   7.2038   7.2222   7.2527   7.3259   7.3453
     8.6116   8.8622   8.9536   9.0344   9.1265   9.2328   9.4247   9.4839
     9.6256   9.7222   9.8131   9.8974   9.9718  10.1076  10.2841  10.4407
    11.0256  11.2193

          k =-0.0718 0.0000-0.1020 ( 81920 PWs)   bands (ev):

   -56.2766 -56.2766 -56.2765 -56.2765 -56.2737 -56.2737 -56.2736 -56.2736
   -56.2589 -56.2589 -56.2588 -56.2588 -56.2537 -56.2537 -56.2537 -56.2536
   -56.2513 -56.2513 -56.2513 -56.2512 -56.2377 -56.2377 -56.2377 -56.2377
   -56.2256 -56.2256 -56.2256 -56.2256 -56.2220 -56.2219 -56.2219 -56.2219
   -56.2109 -56.2108 -56.2108 -56.2108 -56.2079 -56.2079 -56.2079 -56.2079
   -56.1927 -56.1927 -56.1927 -56.1927 -56.1917 -56.1917 -56.1917 -56.1917
   -56.1908 -56.1908 -56.1907 -56.1907 -56.1846 -56.1846 -56.1846 -56.1846
   -56.1817 -56.1817 -56.1816 -56.1816 -46.9321 -46.9320 -42.0680 -42.0680
   -41.7994 -41.7993 -41.7709 -41.7708 -20.7600 -20.7600 -20.7548 -20.7547
   -20.7545 -20.7544 -10.4804 -10.4804 -10.3527 -10.3527 -10.3224 -10.3224
   -10.2765 -10.2765 -10.2271 -10.2271 -10.1724 -10.1724  -0.0784  -0.0784
     0.1875   0.1875   0.3233   0.3233   0.3897   0.3898   0.6077   0.6077
     0.8610   0.8610   1.1777   1.1777   1.2973   1.2973   1.5675   1.5676
     1.6414   1.6414   1.6965   1.6965   1.8207   1.8207   1.8454   1.8454
     2.0435   2.0435   2.0947   2.0947   2.2796   2.2796   2.3079   2.3079
     2.4562   2.4562   7.1506   7.1507   7.2200   7.2201   7.2692   7.2693
     8.6308   8.6308   9.0232   9.0232   9.1835   9.1835   9.3156   9.3157
     9.5678   9.5679   9.7581   9.7582  10.0923  10.0923  10.3978  10.3978
    11.0403  11.0403

          k =-0.0718 0.0278-0.0255 ( 81854 PWs)   bands (ev):

   -56.2766 -56.2766 -56.2765 -56.2765 -56.2737 -56.2737 -56.2736 -56.2736
   -56.2589 -56.2589 -56.2588 -56.2588 -56.2537 -56.2537 -56.2537 -56.2536
   -56.2513 -56.2513 -56.2512 -56.2512 -56.2377 -56.2377 -56.2377 -56.2377
   -56.2256 -56.2256 -56.2256 -56.2256 -56.2219 -56.2219 -56.2219 -56.2219
   -56.2109 -56.2108 -56.2108 -56.2108 -56.2079 -56.2079 -56.2079 -56.2079
   -56.1927 -56.1927 -56.1927 -56.1927 -56.1917 -56.1917 -56.1917 -56.1917
   -56.1908 -56.1907 -56.1907 -56.1907 -56.1846 -56.1846 -56.1846 -56.1846
   -56.1817 -56.1817 -56.1817 -56.1816 -46.9321 -46.9320 -42.0680 -42.0680
   -41.7994 -41.7993 -41.7709 -41.7708 -20.7600 -20.7599 -20.7548 -20.7547
   -20.7545 -20.7544 -10.5290 -10.5290 -10.3834 -10.3834 -10.2912 -10.2912
   -10.2616 -10.2616 -10.2069 -10.2069 -10.1562 -10.1562   0.0299   0.0299
     0.2740   0.2740   0.4687   0.4688   0.6240   0.6240   0.6781   0.6781
     0.8893   0.8893   0.9838   0.9838   1.1913   1.1913   1.2555   1.2555
     1.4827   1.4827   1.6042   1.6042   1.7939   1.7939   1.8654   1.8654
     1.9540   1.9540   2.0538   2.0538   2.2303   2.2303   2.2903   2.2903
     2.4362   2.4362   7.2320   7.2320   7.3521   7.3521   7.4654   7.4655
     8.6226   8.6226   9.2753   9.2753   9.3300   9.3301   9.7722   9.7722
     9.8820   9.8820  10.1140  10.1140  10.4879  10.4879  10.7790  10.7790
    11.0138  11.0138

          k =-0.0718 0.0278-0.0000 ( 81877 PWs)   bands (ev):

   -56.2766 -56.2766 -56.2765 -56.2765 -56.2737 -56.2737 -56.2736 -56.2736
   -56.2589 -56.2589 -56.2588 -56.2588 -56.2537 -56.2537 -56.2537 -56.2536
   -56.2513 -56.2513 -56.2512 -56.2512 -56.2377 -56.2377 -56.2377 -56.2377
   -56.2256 -56.2256 -56.2256 -56.2256 -56.2219 -56.2219 -56.2219 -56.2219
   -56.2109 -56.2108 -56.2108 -56.2108 -56.2079 -56.2079 -56.2079 -56.2079
   -56.1927 -56.1927 -56.1927 -56.1927 -56.1917 -56.1917 -56.1917 -56.1917
   -56.1908 -56.1908 -56.1907 -56.1907 -56.1846 -56.1846 -56.1846 -56.1846
   -56.1817 -56.1817 -56.1816 -56.1816 -46.9321 -46.9320 -42.0680 -42.0680
   -41.7994 -41.7993 -41.7709 -41.7708 -20.7600 -20.7599 -20.7548 -20.7547
   -20.7545 -20.7544 -10.5291 -10.5062 -10.3818 -10.3709 -10.3063 -10.2931
   -10.2704 -10.2597 -10.2168 -10.2028 -10.1625 -10.1588  -0.0663   0.0041
     0.2763   0.3088   0.4103   0.4464   0.5532   0.5736   0.5955   0.6785
     0.8378   0.9496   0.9650   1.1095   1.1949   1.2154   1.3492   1.3604
     1.4729   1.5730   1.6345   1.6437   1.7720   1.7818   1.8845   1.8951
     2.0046   2.0118   2.0883   2.0896   2.1635   2.2052   2.2236   2.3064
     2.4287   2.4577   7.1774   7.2092   7.3182   7.3612   7.4240   7.4440
     8.6799   8.7123   8.9868   9.1140   9.3920   9.4035   9.5483   9.6550
     9.7475   9.7771  10.0007  10.2556  10.4184  10.4206  10.7118  10.7179
    10.9328  10.9560

          k =-0.0718 0.0278 0.0255 ( 81905 PWs)   bands (ev):

   -56.2766 -56.2766 -56.2765 -56.2765 -56.2737 -56.2737 -56.2736 -56.2736
   -56.2589 -56.2589 -56.2588 -56.2588 -56.2537 -56.2537 -56.2537 -56.2536
   -56.2513 -56.2513 -56.2512 -56.2512 -56.2377 -56.2377 -56.2377 -56.2377
   -56.2256 -56.2256 -56.2256 -56.2256 -56.2219 -56.2219 -56.2219 -56.2219
   -56.2109 -56.2108 -56.2108 -56.2108 -56.2079 -56.2079 -56.2079 -56.2079
   -56.1927 -56.1927 -56.1927 -56.1927 -56.1917 -56.1917 -56.1917 -56.1917
   -56.1908 -56.1908 -56.1907 -56.1907 -56.1846 -56.1846 -56.1846 -56.1846
   -56.1817 -56.1817 -56.1816 -56.1816 -46.9321 -46.9320 -42.0680 -42.0680
   -41.7994 -41.7993 -41.7709 -41.7708 -20.7600 -20.7599 -20.7548 -20.7547
   -20.7545 -20.7544 -10.5049 -10.4732 -10.3789 -10.3595 -10.3299 -10.3160
   -10.2682 -10.2461 -10.2333 -10.2038 -10.1773 -10.1701  -0.1621  -0.1102
     0.2571   0.2873   0.3549   0.3734   0.4533   0.4997   0.6204   0.6757
     0.8515   0.9647   1.0352   1.1277   1.2363   1.2467   1.4601   1.5093
     1.5872   1.6342   1.6700   1.6854   1.7475   1.7623   1.9120   1.9632
     2.0150   2.0193   2.1343   2.1512   2.1829   2.2001   2.2779   2.3536
     2.3873   2.4318   7.0804   7.1225   7.3024   7.3161   7.3660   7.3718
     8.7053   8.8100   8.8914   8.9211   9.1082   9.1187   9.3718   9.3753
     9.6598   9.7702  10.0953  10.1279  10.3790  10.4575  10.6126  10.6291
    10.9182  11.0030

          k =-0.0718 0.0278-0.1020 ( 81930 PWs)   bands (ev):

   -56.2766 -56.2766 -56.2765 -56.2765 -56.2737 -56.2737 -56.2736 -56.2736
   -56.2589 -56.2589 -56.2588 -56.2588 -56.2537 -56.2537 -56.2537 -56.2536
   -56.2513 -56.2513 -56.2513 -56.2512 -56.2377 -56.2377 -56.2377 -56.2377
   -56.2256 -56.2256 -56.2256 -56.2256 -56.2220 -56.2219 -56.2219 -56.2219
   -56.2109 -56.2108 -56.2108 -56.2108 -56.2079 -56.2079 -56.2079 -56.2079
   -56.1927 -56.1927 -56.1927 -56.1927 -56.1917 -56.1917 -56.1917 -56.1917
   -56.1908 -56.1908 -56.1907 -56.1907 -56.1846 -56.1846 -56.1846 -56.1846
   -56.1817 -56.1817 -56.1816 -56.1816 -46.9321 -46.9320 -42.0680 -42.0680
   -41.7994 -41.7993 -41.7709 -41.7708 -20.7600 -20.7600 -20.7548 -20.7548
   -20.7545 -20.7544 -10.4701 -10.4701 -10.3788 -10.3788 -10.3256 -10.3256
   -10.2554 -10.2554 -10.2196 -10.2196 -10.1819 -10.1819  -0.1818  -0.1818
     0.2416   0.2416   0.3274   0.3274   0.4636   0.4637   0.6651   0.6651
     0.9195   0.9195   1.1426   1.1426   1.2272   1.2272   1.5266   1.5266
     1.5990   1.5990   1.6907   1.6907   1.7308   1.7308   1.9487   1.9487
     2.1045   2.1045   2.1244   2.1244   2.2721   2.2721   2.3054   2.3054
     2.3955   2.3955   7.0504   7.0504   7.2900   7.2901   7.3344   7.3344
     8.6810   8.6810   8.8069   8.8069   9.1695   9.1695   9.2706   9.2707
     9.6712   9.6712  10.0967  10.0967  10.4071  10.4071  10.6389  10.6389
    10.9288  10.9288

     the Fermi energy is     4.8502 ev

!    total energy              =   -6740.56181384 Ry

     total all-electron energy =   -114993.577772 Ry
     estimated scf accuracy    <          8.7E-09 Ry
     smearing contrib. (-TS)   =      -0.00000000 Ry
     internal energy E=F+TS    =   -6740.56181384 Ry

     The total energy is F=E-TS. E is the sum of the following terms:
     one-electron contribution =   -3515.77478225 Ry
     hartree contribution      =    1687.88588195 Ry
     xc contribution           =    -503.21482929 Ry
     ewald contribution        =   -1690.68325647 Ry
     one-center paw contrib.   =   -2718.77482778 Ry

     convergence has been achieved in   9 iterations

     Forces acting on atoms (cartesian axes, Ry/au):

     atom    1 type  1   force =     0.00000000   -0.00206347    0.00000000
     atom    2 type  1   force =     0.00000000    0.00042053    0.00000000
     atom    3 type  1   force =     0.00000000   -0.00039708    0.00000000
     atom    4 type  1   force =     0.00000000   -0.00206228    0.00000000
     atom    5 type  1   force =     0.00000000    0.00042552    0.00000000
     atom    6 type  1   force =     0.00000000   -0.00039962    0.00000000
     atom    7 type  2   force =     0.00000000    0.00081405    0.00000000
     atom    8 type  2   force =     0.00000000    0.00081918    0.00000000
     atom    9 type  3   force =     0.00087432    0.00150486    0.00389030
     atom   10 type  3   force =     0.00318644   -0.00240615    0.00127219
     atom   11 type  3   force =    -0.00318644   -0.00240615   -0.00127219
     atom   12 type  3   force =    -0.00087432    0.00150486   -0.00389030
     atom   13 type  3   force =    -0.00318281    0.00147517    0.00333624
     atom   14 type  3   force =     0.00318281    0.00147517   -0.00333624
     atom   15 type  3   force =     0.00088143    0.00148139    0.00393466
     atom   16 type  3   force =     0.00316386   -0.00235662    0.00126584
     atom   17 type  3   force =    -0.00316386   -0.00235662   -0.00126584
     atom   18 type  3   force =    -0.00088143    0.00148139   -0.00393466
     atom   19 type  3   force =    -0.00313102    0.00152292    0.00334355
     atom   20 type  3   force =     0.00313102    0.00152292   -0.00334355

     Total force =     0.015706     Total SCF correction =     0.000336


     Computing stress (Cartesian axis) and pressure

          total   stress  (Ry/bohr**3)                   (kbar)     P=       -4.90
  -0.00003644   0.00000000   0.00000130           -5.36        0.00        0.19
   0.00000000  -0.00003806   0.00000000            0.00       -5.60        0.00
   0.00000130   0.00000000  -0.00002548            0.19        0.00       -3.75


     Writing output data file ./pwscf.save/
 
     init_run     :     13.97s CPU     14.37s WALL (       1 calls)
     electrons    :    346.18s CPU    352.57s WALL (       1 calls)
     forces       :      5.48s CPU      5.54s WALL (       1 calls)
     stress       :     53.31s CPU     53.55s WALL (       1 calls)

     Called by init_run:
     wfcinit      :      9.59s CPU      9.92s WALL (       1 calls)
     potinit      :      1.06s CPU      1.09s WALL (       1 calls)
     hinit0       :      1.14s CPU      1.16s WALL (       1 calls)

     Called by electrons:
     c_bands      :    297.16s CPU    302.31s WALL (      10 calls)
     sum_band     :     45.39s CPU     46.16s WALL (      10 calls)
     v_of_rho     :      0.74s CPU      0.76s WALL (      10 calls)
     newd         :      1.84s CPU      2.11s WALL (      10 calls)
     PAW_pot      :      1.05s CPU      1.06s WALL (      10 calls)
     mix_rho      :      0.15s CPU      0.16s WALL (      10 calls)

     Called by c_bands:
     init_us_2    :      2.97s CPU      2.99s WALL (     460 calls)
     cegterg      :    247.01s CPU    251.89s WALL (     200 calls)

     Called by *egterg:
     cdiaghg      :     34.43s CPU     34.90s WALL (    1068 calls)
     h_psi        :    150.30s CPU    153.00s WALL (    1108 calls)
     s_psi        :     14.42s CPU     14.47s WALL (    1108 calls)
     g_psi        :      0.68s CPU      0.68s WALL (     888 calls)

     Called by h_psi:
     h_psi:calbec :     14.79s CPU     14.85s WALL (    1108 calls)
     vloc_psi     :    119.63s CPU    121.21s WALL (    1108 calls)
     add_vuspsi   :     14.45s CPU     14.50s WALL (    1108 calls)

     General routines
     calbec       :     22.57s CPU     22.65s WALL (    1408 calls)
     fft          :      0.62s CPU      0.63s WALL (     154 calls)
     ffts         :      0.04s CPU      0.05s WALL (      20 calls)
     fftw         :    125.47s CPU    127.11s WALL (  173298 calls)
     interpolate  :      0.08s CPU      0.08s WALL (      10 calls)
 
     Parallel routines
     fft_scatt_xy :     27.78s CPU     28.16s WALL (  173472 calls)
     fft_scatt_yz :     39.60s CPU     40.15s WALL (  173472 calls)
 
     PWSCF        :   7m 2.39s CPU   7m14.98s WALL

 
   This run was terminated on:  17:40:49   2Aug2021            

=------------------------------------------------------------------------------=
   JOB DONE.
=------------------------------------------------------------------------------=
