
     Program PWSCF v.6.7MaX starts on 26Jul2021 at 13:56:40 

     This program is part of the open-source Quantum ESPRESSO suite
     for quantum simulation of materials; please cite
         "P. Giannozzi et al., J. Phys.:Condens. Matter 21 395502 (2009);
         "P. Giannozzi et al., J. Phys.:Condens. Matter 29 465901 (2017);
          URL http://www.quantum-espresso.org", 
     in publications or presentations arising from this work. More details at
     http://www.quantum-espresso.org/quote

     Parallel version (MPI), running on    48 processors

     MPI processes distributed on     2 nodes
     K-points division:     npool     =       2
     R & G space division:  proc/nbgrp/npool/nimage =      24
     Waiting for input...
     Reading input from standard input
Warning: card &CELL ignored
Warning: card CELL_DYNAMICS             = 'BFGS', ignored
Warning: card PRESS                     = '0.0', ignored
Warning: card PRESS_CONV_THR            = '0.5', ignored
Warning: card / ignored
     Message from routine read_cards :
     DEPRECATED: no units specified in CELL_PARAMETERS card

     Current dimensions of program PWSCF are:
     Max number of different atomic species (ntypx) = 10
     Max number of k-points (npk) =  40000
     Max angular momentum in pseudopotentials (lmaxx) =  3
     Message from routine cell_base_init:
     DEPRECATED: use true lattice parameter, not A to a.u. conversion factor
 end of file reached, closing tag not found
     file Er.pbe-spdn-kjpaw_psl.1.0.0.UPF: wavefunction(s)  6S 5D renormalized
     file Br.pbe-dn-kjpaw_psl.1.0.0.UPF: wavefunction(s)  4S 4P 3D renormalized

     Subspace diagonalization in iterative solution of the eigenvalue problem:
     a serial algorithm will be used

     Found symmetry operation: I + ( -0.5000 -0.5000  0.0000)
     This is a supercell, fractional translations are disabled
     Message from routine setup:
     using ibrav=0 with symmetry is DISCOURAGED, use correct ibrav instead
 
     Parallelization info
     --------------------
     sticks:   dense  smooth     PW     G-vecs:    dense   smooth      PW
     Min         296     237     66                13484     9650    1420
     Max         299     238     67                13485     9653    1423
     Sum        7129    5707   1597               323627   231643   34117
 


     bravais-lattice index     =            0
     lattice parameter (alat)  =       1.8897  a.u.
     unit-cell volume          =    3688.3023 (a.u.)^3
     number of atoms/cell      =           20
     number of atomic types    =            3
     number of electrons       =       244.00
     number of Kohn-Sham states=          146
     kinetic-energy cutoff     =      60.0000  Ry
     charge density cutoff     =     300.0000  Ry
     scf convergence threshold =      1.0E-08
     mixing beta               =       0.4000
     number of iterations used =            8  plain     mixing
     Exchange-correlation= SLA  PW   PBX  PBC
                           (   1   4   3   4   0   0   0)

     celldm(1)=   1.889726  celldm(2)=   0.000000  celldm(3)=   0.000000
     celldm(4)=   0.000000  celldm(5)=   0.000000  celldm(6)=   0.000000

     crystal axes: (cart. coord. in units of alat)
               a(1) = (   6.967356   0.000000   0.000000 )  
               a(2) = (   0.000000  11.998880   0.000000 )  
               a(3) = (  -2.324723   0.000000   6.537643 )  

     reciprocal axes: (cart. coord. in units 2 pi/alat)
               b(1) = (  0.143526  0.000000  0.051037 )  
               b(2) = (  0.000000  0.083341  0.000000 )  
               b(3) = (  0.000000  0.000000  0.152960 )  


     PseudoPot. # 1 for Li read from file:
     /central/groups/SeeGroup/qe_pseudopotentials/Li.pbe-s-kjpaw_psl.1.0.0.UPF
     MD5 check sum: cc502796ee09d8b62ac346ee26e59beb
     Pseudo is Projector augmented-wave, Zval =  3.0
     Generated using &quot;atomic&quot; code by A. Dal Corso  v.6.3
     Shape of augmentation charge: PSQ
     Using radial grid of 1017 points,  4 beta functions with: 
                l(1) =   0
                l(2) =   0
                l(3) =   1
                l(4) =   1
     Q(r) pseudized with 0 coefficients 


     PseudoPot. # 2 for Er read from file:
     /central/groups/SeeGroup/qe_pseudopotentials/Er.pbe-spdn-kjpaw_psl.1.0.0.UPF
     MD5 check sum: a923254af2aef992cff3e18bc73f2922
     Pseudo is Projector augmented-wave + core cor, Zval = 11.0
     Generated using &quot;atomic&quot; code by A. Dal Corso  v.6.2.2
     Shape of augmentation charge: PSQ
     Using radial grid of 1267 points,  6 beta functions with: 
                l(1) =   0
                l(2) =   0
                l(3) =   1
                l(4) =   1
                l(5) =   2
                l(6) =   2
     Q(r) pseudized with 0 coefficients 


     PseudoPot. # 3 for Br read from file:
     /central/groups/SeeGroup/qe_pseudopotentials/Br.pbe-dn-kjpaw_psl.1.0.0.UPF
     MD5 check sum: 4ca4ebabfd6065c7bb707b2ebe99e9b3
     Pseudo is Projector augmented-wave + core cor, Zval = 17.0
     Generated using &quot;atomic&quot; code by A. Dal Corso  v.6.3
     Shape of augmentation charge: PSQ
     Using radial grid of 1213 points,  6 beta functions with: 
                l(1) =   0
                l(2) =   0
                l(3) =   1
                l(4) =   1
                l(5) =   2
                l(6) =   2
     Q(r) pseudized with 0 coefficients 


     atomic species   valence    mass     pseudopotential
        Li             3.00     6.94100     Li( 1.00)
        Er            11.00   167.25900     Er( 1.00)
        Br            17.00    79.90400     Br( 1.00)

      2 Sym. Ops. (no inversion) found



   Cartesian axes

     site n.     atom                  positions (alat units)
         1           Li  tau(   1) = (   3.4836780   9.9564306   0.0000000  )
         2           Li  tau(   2) = (   3.4836780   2.0173957   0.0000000  )
         3           Li  tau(   3) = (   2.3213165   7.8846440   3.2688215  )
         4           Li  tau(   4) = (   0.0000000   3.9569906   0.0000000  )
         5           Li  tau(   5) = (   0.0000000   8.0168357   0.0000000  )
         6           Li  tau(   6) = (  -1.1623615   1.8852040   3.2688215  )
         7           Er  tau(   7) = (   3.4836780   5.9699947   0.0000000  )
         8           Er  tau(   8) = (   0.0000000  11.9694347   0.0000000  )
         9           Br  tau(   9) = (   3.4471523   9.9581465   5.0158758  )
        10           Br  tau(  10) = (   3.5847273   1.9854607   4.9258002  )
        11           Br  tau(  11) = (   1.0579057   1.9854607   1.6118428  )
        12           Br  tau(  12) = (   1.1954807   9.9581465   1.5217672  )
        13           Br  tau(  13) = (  -0.0150075   0.0698395   4.9769442  )
        14           Br  tau(  14) = (   4.6576405   0.0698395   1.5606988  )
        15           Br  tau(  15) = (  -0.0365257   3.9587065   5.0158758  )
        16           Br  tau(  16) = (   0.1010493   7.9849007   4.9258002  )
        17           Br  tau(  17) = (   4.5415837   7.9849007   1.6118428  )
        18           Br  tau(  18) = (   4.6791587   3.9587065   1.5217672  )
        19           Br  tau(  19) = (   3.4686705   6.0692795   4.9769442  )
        20           Br  tau(  20) = (   1.1739625   6.0692795   1.5606988  )

     number of k points=     8  Fermi-Dirac smearing, width (Ry)=  0.0070
                       cart. coord. in units 2pi/alat
        k(    1) = (   0.0000000   0.0000000   0.0000000), wk =   0.2500000
        k(    2) = (   0.0000000   0.0000000  -0.0764802), wk =   0.2500000
        k(    3) = (   0.0000000  -0.0416706   0.0000000), wk =   0.2500000
        k(    4) = (   0.0000000  -0.0416706  -0.0764802), wk =   0.2500000
        k(    5) = (  -0.0717632   0.0000000  -0.0255183), wk =   0.2500000
        k(    6) = (  -0.0717632   0.0000000  -0.1019985), wk =   0.2500000
        k(    7) = (  -0.0717632  -0.0416706  -0.0255183), wk =   0.2500000
        k(    8) = (  -0.0717632  -0.0416706  -0.1019985), wk =   0.2500000

     Dense  grid:   323627 G-vectors     FFT dimensions: (  75, 125,  75)

     Smooth grid:   231643 G-vectors     FFT dimensions: (  72, 120,  72)

     Estimated max dynamical RAM per process >      54.88 MB

     Estimated total dynamical RAM >       2.57 GB

     Check: negative core charge=   -0.000002

     Initial potential from superposition of free atoms

     starting charge  243.93496, renormalised to  244.00000
     Starting wfcs are  164 randomized atomic wfcs
     Checking if some PAW data can be deallocated... 

     total cpu time spent up to now is        2.6 secs

     Self-consistent Calculation

     iteration #  1     ecut=    60.00 Ry     beta= 0.40
     Davidson diagonalization with overlap
     ethr =  1.00E-02,  avg # of iterations =  4.8

     Threshold (ethr) on eigenvalues was too large:
     Diagonalizing with lowered threshold

     Davidson diagonalization with overlap
     ethr =  1.17E-04,  avg # of iterations =  7.4

     total cpu time spent up to now is        9.3 secs

     total energy              =   -6740.44615595 Ry
     estimated scf accuracy    <       0.28330834 Ry

     iteration #  2     ecut=    60.00 Ry     beta= 0.40
     Davidson diagonalization with overlap
     ethr =  1.16E-04,  avg # of iterations =  2.0

     total cpu time spent up to now is       11.8 secs

     total energy              =   -6740.47171994 Ry
     estimated scf accuracy    <       0.03858548 Ry

     iteration #  3     ecut=    60.00 Ry     beta= 0.40
     Davidson diagonalization with overlap
     ethr =  1.58E-05,  avg # of iterations =  7.6

     total cpu time spent up to now is       15.7 secs

     total energy              =   -6740.47675969 Ry
     estimated scf accuracy    <       0.00532186 Ry

     iteration #  4     ecut=    60.00 Ry     beta= 0.40
     Davidson diagonalization with overlap
     c_bands:  1 eigenvalues not converged
     c_bands:  1 eigenvalues not converged
     ethr =  2.18E-06,  avg # of iterations =  9.8

     total cpu time spent up to now is       20.1 secs

     total energy              =   -6740.47742403 Ry
     estimated scf accuracy    <       0.00077613 Ry

     iteration #  5     ecut=    60.00 Ry     beta= 0.40
     Davidson diagonalization with overlap
     ethr =  3.18E-07,  avg # of iterations =  2.6

     total cpu time spent up to now is       22.7 secs

     total energy              =   -6740.47755198 Ry
     estimated scf accuracy    <       0.00020128 Ry

     iteration #  6     ecut=    60.00 Ry     beta= 0.40
     Davidson diagonalization with overlap
     ethr =  8.25E-08,  avg # of iterations =  2.0

     total cpu time spent up to now is       25.0 secs

     total energy              =   -6740.47756832 Ry
     estimated scf accuracy    <       0.00003996 Ry

     iteration #  7     ecut=    60.00 Ry     beta= 0.40
     Davidson diagonalization with overlap
     ethr =  1.64E-08,  avg # of iterations =  2.0

     total cpu time spent up to now is       27.4 secs

     total energy              =   -6740.47757029 Ry
     estimated scf accuracy    <       0.00000079 Ry

     iteration #  8     ecut=    60.00 Ry     beta= 0.40
     Davidson diagonalization with overlap
     ethr =  3.25E-10,  avg # of iterations =  2.0

     total cpu time spent up to now is       30.2 secs

     total energy              =   -6740.47757053 Ry
     estimated scf accuracy    <       0.00000013 Ry

     iteration #  9     ecut=    60.00 Ry     beta= 0.40
     Davidson diagonalization with overlap
     ethr =  5.39E-11,  avg # of iterations =  2.0

     total cpu time spent up to now is       32.6 secs

     End of self-consistent calculation

          k = 0.0000 0.0000 0.0000 ( 28943 PWs)   bands (ev):

   -56.2526 -56.2525 -56.2525 -56.2525 -56.2496 -56.2496 -56.2496 -56.2496
   -56.2349 -56.2349 -56.2349 -56.2349 -56.2296 -56.2296 -56.2295 -56.2295
   -56.2272 -56.2272 -56.2272 -56.2272 -56.2142 -56.2142 -56.2142 -56.2141
   -56.2020 -56.2020 -56.2020 -56.2020 -56.1983 -56.1983 -56.1983 -56.1983
   -56.1879 -56.1879 -56.1878 -56.1878 -56.1850 -56.1849 -56.1848 -56.1848
   -56.1689 -56.1689 -56.1689 -56.1689 -56.1679 -56.1679 -56.1679 -56.1679
   -56.1677 -56.1677 -56.1676 -56.1676 -56.1614 -56.1613 -56.1611 -56.1611
   -56.1584 -56.1584 -56.1583 -56.1583 -46.9302 -46.9301 -42.0719 -42.0719
   -41.8033 -41.8032 -41.7749 -41.7748 -20.7588 -20.7587 -20.7534 -20.7532
   -20.7531 -20.7531 -10.7183 -10.5373 -10.3914 -10.2849 -10.2752 -10.2659
   -10.2336 -10.2290 -10.2213 -10.1568 -10.1514 -10.1258  -0.1634  -0.1544
     0.2229   0.2488   0.2657   0.4098   0.4588   0.6245   0.6774   0.7462
     0.8667   0.8668   0.8755   1.0012   1.1293   1.2448   1.2667   1.2703
     1.2771   1.4854   1.5280   1.6978   1.7430   1.9416   1.9840   2.0200
     2.0582   2.0758   2.1902   2.2437   2.3352   2.4654   2.5309   2.5313
     2.5761   2.5821   7.0495   7.3107   7.4467   7.4694   7.4734   7.5201
     7.5540   8.7255   8.7579   8.8094   9.1179   9.1673   9.3663   9.4000
     9.4926   9.7352   9.9263  10.3257  10.3262  10.3778  10.7033  10.8947
    10.9504  11.1019

          k = 0.0000 0.0000-0.0765 ( 28930 PWs)   bands (ev):

   -56.2526 -56.2525 -56.2525 -56.2524 -56.2496 -56.2496 -56.2496 -56.2496
   -56.2349 -56.2349 -56.2349 -56.2349 -56.2296 -56.2296 -56.2296 -56.2295
   -56.2272 -56.2272 -56.2272 -56.2272 -56.2142 -56.2142 -56.2142 -56.2141
   -56.2020 -56.2020 -56.2020 -56.2020 -56.1983 -56.1983 -56.1983 -56.1983
   -56.1879 -56.1878 -56.1878 -56.1877 -56.1850 -56.1849 -56.1848 -56.1847
   -56.1689 -56.1689 -56.1689 -56.1689 -56.1679 -56.1679 -56.1679 -56.1679
   -56.1677 -56.1677 -56.1676 -56.1676 -56.1614 -56.1613 -56.1611 -56.1611
   -56.1584 -56.1584 -56.1583 -56.1583 -46.9302 -46.9301 -42.0719 -42.0718
   -41.8033 -41.8032 -41.7749 -41.7748 -20.7588 -20.7587 -20.7534 -20.7532
   -20.7531 -20.7531 -10.6071 -10.4544 -10.3765 -10.3413 -10.3162 -10.2815
   -10.2696 -10.2544 -10.2376 -10.1799 -10.1599 -10.1390   0.0282   0.1864
     0.1959   0.2534   0.3991   0.5015   0.5857   0.6794   0.6910   0.7374
     0.7873   0.9523   0.9944   1.0488   1.0978   1.2117   1.2743   1.3632
     1.3923   1.4573   1.4691   1.5353   1.6719   1.7981   1.8897   1.9027
     1.9570   2.0726   2.1249   2.1363   2.1469   2.2906   2.3014   2.3376
     2.4597   2.4629   7.1937   7.2200   7.2536   7.3287   7.4896   7.5794
     8.6469   8.8026   8.9152   9.0821   9.1960   9.4485   9.8968   9.9653
     9.9708  10.0492  10.0530  10.1942  10.2753  10.3126  10.7786  10.8276
    10.9911  10.9967

          k = 0.0000-0.0417 0.0000 ( 28908 PWs)   bands (ev):

   -56.2525 -56.2525 -56.2525 -56.2525 -56.2496 -56.2496 -56.2496 -56.2496
   -56.2349 -56.2349 -56.2349 -56.2349 -56.2296 -56.2296 -56.2295 -56.2295
   -56.2272 -56.2272 -56.2272 -56.2272 -56.2142 -56.2142 -56.2142 -56.2142
   -56.2020 -56.2020 -56.2020 -56.2019 -56.1983 -56.1983 -56.1983 -56.1983
   -56.1879 -56.1878 -56.1878 -56.1878 -56.1849 -56.1849 -56.1847 -56.1847
   -56.1689 -56.1689 -56.1689 -56.1689 -56.1679 -56.1679 -56.1679 -56.1679
   -56.1677 -56.1677 -56.1676 -56.1676 -56.1613 -56.1613 -56.1611 -56.1611
   -56.1584 -56.1584 -56.1583 -56.1583 -46.9302 -46.9301 -42.0719 -42.0718
   -41.8033 -41.8031 -41.7749 -41.7748 -20.7587 -20.7587 -20.7533 -20.7532
   -20.7532 -20.7531 -10.6501 -10.6501 -10.3141 -10.3141 -10.2862 -10.2862
   -10.1912 -10.1911 -10.1786 -10.1786 -10.1753 -10.1752  -0.1190  -0.1190
     0.1100   0.1100   0.3399   0.3400   0.5151   0.5151   0.7153   0.7153
     0.8517   0.8517   1.0686   1.0686   1.1446   1.1446   1.3274   1.3274
     1.4290   1.4290   1.7572   1.7572   1.8714   1.8714   1.9422   1.9422
     1.9789   1.9789   2.2819   2.2819   2.3292   2.3292   2.4155   2.4155
     2.5495   2.5495   7.2725   7.2726   7.4585   7.4586   7.4819   7.4820
     8.1214   8.1215   8.8901   8.8901   9.1022   9.1023   9.3657   9.3657
     9.5975   9.5975  10.1350  10.1350  10.2521  10.2521  10.8521  10.8521
    11.1297  11.1298

          k = 0.0000-0.0417-0.0765 ( 29020 PWs)   bands (ev):

   -56.2526 -56.2525 -56.2525 -56.2525 -56.2496 -56.2496 -56.2496 -56.2496
   -56.2349 -56.2349 -56.2349 -56.2349 -56.2296 -56.2296 -56.2296 -56.2296
   -56.2273 -56.2273 -56.2272 -56.2272 -56.2142 -56.2142 -56.2142 -56.2142
   -56.2021 -56.2020 -56.2020 -56.2020 -56.1983 -56.1983 -56.1983 -56.1983
   -56.1879 -56.1878 -56.1878 -56.1878 -56.1850 -56.1850 -56.1848 -56.1848
   -56.1689 -56.1689 -56.1689 -56.1689 -56.1679 -56.1679 -56.1679 -56.1679
   -56.1677 -56.1677 -56.1676 -56.1676 -56.1614 -56.1614 -56.1612 -56.1612
   -56.1584 -56.1584 -56.1583 -56.1583 -46.9302 -46.9301 -42.0719 -42.0719
   -41.8033 -41.8032 -41.7749 -41.7748 -20.7588 -20.7587 -20.7533 -20.7532
   -20.7532 -20.7532 -10.5471 -10.5471 -10.3655 -10.3655 -10.2965 -10.2965
   -10.2292 -10.2292 -10.1902 -10.1902 -10.1801 -10.1801   0.0568   0.0569
     0.2474   0.2474   0.3786   0.3786   0.6045   0.6045   0.7525   0.7525
     0.9838   0.9838   0.9877   0.9877   1.2456   1.2456   1.2499   1.2499
     1.4944   1.4945   1.5627   1.5627   1.8084   1.8084   1.9024   1.9024
     1.9866   1.9866   2.0001   2.0002   2.2004   2.2004   2.2953   2.2954
     2.3982   2.3982   7.2859   7.2860   7.3466   7.3467   7.4726   7.4727
     8.6031   8.6031   9.2122   9.2122   9.5025   9.5026   9.8027   9.8027
    10.0322  10.0323  10.0384  10.0384  10.5290  10.5290  10.6020  10.6020
    11.1534  11.2017

          k =-0.0718 0.0000-0.0255 ( 28928 PWs)   bands (ev):

   -56.2526 -56.2525 -56.2525 -56.2524 -56.2496 -56.2496 -56.2496 -56.2496
   -56.2349 -56.2349 -56.2349 -56.2349 -56.2296 -56.2296 -56.2295 -56.2295
   -56.2272 -56.2272 -56.2272 -56.2271 -56.2142 -56.2142 -56.2141 -56.2141
   -56.2020 -56.2020 -56.2020 -56.2019 -56.1983 -56.1983 -56.1983 -56.1983
   -56.1879 -56.1878 -56.1878 -56.1878 -56.1850 -56.1849 -56.1848 -56.1848
   -56.1689 -56.1689 -56.1689 -56.1689 -56.1679 -56.1679 -56.1679 -56.1679
   -56.1677 -56.1677 -56.1676 -56.1676 -56.1614 -56.1614 -56.1611 -56.1611
   -56.1584 -56.1584 -56.1583 -56.1583 -46.9302 -46.9301 -42.0719 -42.0719
   -41.8033 -41.8032 -41.7749 -41.7748 -20.7587 -20.7587 -20.7533 -20.7533
   -20.7533 -20.7532 -10.5315 -10.5315 -10.3442 -10.3442 -10.3204 -10.3204
   -10.2667 -10.2667 -10.1887 -10.1887 -10.1575 -10.1575   0.0695   0.0696
     0.3837   0.3837   0.4298   0.4298   0.5134   0.5134   0.7370   0.7370
     0.8416   0.8416   1.0076   1.0076   1.1242   1.1242   1.1508   1.1508
     1.5929   1.5930   1.6779   1.6779   1.7204   1.7204   1.8398   1.8398
     2.0475   2.0476   2.0648   2.0648   2.2008   2.2008   2.3674   2.3674
     2.4241   2.4241   7.2768   7.2769   7.3155   7.3155   7.4299   7.4300
     8.7594   8.7594   8.9110   8.9110   9.2910   9.2911   9.8113   9.8114
    10.0749  10.0749  10.1657  10.1658  10.3842  10.3842  10.7425  10.7425
    11.1835  11.1835

          k =-0.0718 0.0000-0.1020 ( 28970 PWs)   bands (ev):

   -56.2526 -56.2525 -56.2525 -56.2525 -56.2496 -56.2496 -56.2496 -56.2496
   -56.2349 -56.2349 -56.2349 -56.2349 -56.2296 -56.2296 -56.2295 -56.2295
   -56.2272 -56.2272 -56.2272 -56.2272 -56.2142 -56.2142 -56.2142 -56.2142
   -56.2020 -56.2020 -56.2019 -56.2019 -56.1983 -56.1983 -56.1983 -56.1983
   -56.1879 -56.1879 -56.1878 -56.1878 -56.1850 -56.1849 -56.1848 -56.1847
   -56.1689 -56.1689 -56.1689 -56.1689 -56.1679 -56.1679 -56.1679 -56.1679
   -56.1677 -56.1677 -56.1676 -56.1676 -56.1614 -56.1613 -56.1611 -56.1611
   -56.1584 -56.1584 -56.1583 -56.1583 -46.9302 -46.9301 -42.0719 -42.0719
   -41.8033 -41.8032 -41.7749 -41.7748 -20.7588 -20.7587 -20.7534 -20.7533
   -20.7533 -20.7532 -10.4771 -10.4771 -10.3492 -10.3492 -10.3190 -10.3190
   -10.2734 -10.2734 -10.2241 -10.2241 -10.1693 -10.1693  -0.0745  -0.0745
     0.1931   0.1932   0.3267   0.3268   0.3926   0.3926   0.6135   0.6135
     0.8655   0.8655   1.1802   1.1802   1.3004   1.3004   1.5707   1.5707
     1.6445   1.6445   1.6999   1.7000   1.8239   1.8239   1.8484   1.8484
     2.0463   2.0463   2.0978   2.0978   2.2827   2.2827   2.3109   2.3109
     2.4592   2.4592   7.1534   7.1535   7.2217   7.2218   7.2713   7.2714
     8.6342   8.6342   9.0450   9.0450   9.1870   9.1870   9.3200   9.3200
     9.5825   9.5825   9.7795   9.7795  10.0975  10.0975  10.4148  10.4148
    11.0485  11.0486

          k =-0.0718-0.0417-0.0255 ( 28964 PWs)   bands (ev):

   -56.2526 -56.2525 -56.2525 -56.2524 -56.2496 -56.2496 -56.2496 -56.2496
   -56.2349 -56.2349 -56.2349 -56.2349 -56.2296 -56.2296 -56.2296 -56.2296
   -56.2273 -56.2272 -56.2272 -56.2272 -56.2142 -56.2142 -56.2142 -56.2142
   -56.2020 -56.2020 -56.2020 -56.2020 -56.1983 -56.1983 -56.1983 -56.1983
   -56.1879 -56.1878 -56.1878 -56.1878 -56.1850 -56.1850 -56.1848 -56.1848
   -56.1689 -56.1689 -56.1689 -56.1689 -56.1679 -56.1679 -56.1679 -56.1679
   -56.1677 -56.1677 -56.1676 -56.1676 -56.1614 -56.1613 -56.1611 -56.1611
   -56.1584 -56.1584 -56.1583 -56.1583 -46.9302 -46.9301 -42.0719 -42.0719
   -41.8033 -41.8032 -41.7749 -41.7748 -20.7587 -20.7587 -20.7534 -20.7534
   -20.7532 -20.7532 -10.5235 -10.5235 -10.3874 -10.3873 -10.2844 -10.2843
   -10.2501 -10.2501 -10.2117 -10.2117 -10.1519 -10.1519   0.0200   0.0201
     0.2680   0.2680   0.4809   0.4809   0.6477   0.6477   0.6582   0.6583
     0.9233   0.9233   0.9841   0.9841   1.2039   1.2039   1.3283   1.3284
     1.4992   1.4992   1.5153   1.5154   1.8017   1.8017   1.8410   1.8410
     2.0007   2.0007   2.0801   2.0801   2.1555   2.1555   2.3153   2.3153
     2.4371   2.4371   7.2269   7.2269   7.3603   7.3603   7.4822   7.4823
     8.6160   8.6160   9.3432   9.3432   9.4667   9.4667   9.7326   9.7326
     9.7726   9.7726  10.1014  10.1014  10.6370  10.6370  10.8133  10.8133
    10.9552  10.9553

          k =-0.0718-0.0417-0.1020 ( 28980 PWs)   bands (ev):

   -56.2526 -56.2526 -56.2525 -56.2525 -56.2496 -56.2496 -56.2496 -56.2496
   -56.2349 -56.2349 -56.2349 -56.2349 -56.2296 -56.2296 -56.2296 -56.2296
   -56.2272 -56.2272 -56.2272 -56.2271 -56.2142 -56.2142 -56.2142 -56.2141
   -56.2020 -56.2020 -56.2020 -56.2020 -56.1984 -56.1983 -56.1983 -56.1983
   -56.1879 -56.1879 -56.1878 -56.1878 -56.1850 -56.1850 -56.1848 -56.1848
   -56.1689 -56.1689 -56.1689 -56.1689 -56.1679 -56.1679 -56.1679 -56.1679
   -56.1677 -56.1677 -56.1676 -56.1676 -56.1614 -56.1614 -56.1611 -56.1611
   -56.1584 -56.1584 -56.1583 -56.1583 -46.9302 -46.9301 -42.0719 -42.0719
   -41.8033 -41.8032 -41.7749 -41.7748 -20.7588 -20.7587 -20.7534 -20.7534
   -20.7532 -20.7532 -10.4626 -10.4626 -10.3834 -10.3834 -10.3235 -10.3235
   -10.2458 -10.2458 -10.2133 -10.2133 -10.1833 -10.1833  -0.2012  -0.2012
     0.2456   0.2456   0.3345   0.3345   0.4973   0.4973   0.6915   0.6915
     0.9608   0.9608   1.1145   1.1145   1.2172   1.2172   1.5229   1.5229
     1.5518   1.5518   1.6852   1.6852   1.7433   1.7433   1.9872   1.9872
     2.1164   2.1164   2.1386   2.1387   2.2755   2.2755   2.3093   2.3093
     2.3699   2.3699   7.0338   7.0338   7.3018   7.3018   7.3577   7.3577
     8.6890   8.6890   8.7881   8.7881   9.1647   9.1647   9.2571   9.2571
     9.7615   9.7615  10.1698  10.1698  10.6345  10.6346  10.7863  10.7863
    10.8741  10.8741

     the Fermi energy is     4.8339 ev

!    total energy              =   -6740.47757066 Ry

     total all-electron energy =   -114993.493528 Ry
     estimated scf accuracy    <          8.0E-09 Ry
     smearing contrib. (-TS)   =      -0.00000000 Ry
     internal energy E=F+TS    =   -6740.47757066 Ry

     The total energy is F=E-TS. E is the sum of the following terms:
     one-electron contribution =   -3515.84619846 Ry
     hartree contribution      =    1688.17548365 Ry
     xc contribution           =    -503.27299279 Ry
     ewald contribution        =   -1690.68325647 Ry
     one-center paw contrib.   =   -2718.85060660 Ry

     convergence has been achieved in   9 iterations

     Forces acting on atoms (cartesian axes, Ry/au):

     atom    1 type  1   force =     0.00000000   -0.00198020    0.00000000
     atom    2 type  1   force =     0.00000000    0.00042384    0.00000000
     atom    3 type  1   force =     0.00000000   -0.00029604    0.00000000
     atom    4 type  1   force =     0.00000000   -0.00197006    0.00000000
     atom    5 type  1   force =     0.00000000    0.00043193    0.00000000
     atom    6 type  1   force =     0.00000000   -0.00029190    0.00000000
     atom    7 type  2   force =     0.00000000    0.00078600    0.00000000
     atom    8 type  2   force =     0.00000000    0.00080731    0.00000000
     atom    9 type  3   force =     0.00098083    0.00167696    0.00393998
     atom   10 type  3   force =     0.00320573   -0.00226933    0.00132991
     atom   11 type  3   force =    -0.00320573   -0.00226933   -0.00132991
     atom   12 type  3   force =    -0.00098083    0.00167696   -0.00393998
     atom   13 type  3   force =    -0.00339856    0.00150284    0.00347602
     atom   14 type  3   force =     0.00339856    0.00150284   -0.00347602
     atom   15 type  3   force =     0.00092547    0.00136231    0.00392956
     atom   16 type  3   force =     0.00317430   -0.00248416    0.00129701
     atom   17 type  3   force =    -0.00317430   -0.00248416   -0.00129701
     atom   18 type  3   force =    -0.00092547    0.00136231   -0.00392956
     atom   19 type  3   force =    -0.00326197    0.00125594    0.00348913
     atom   20 type  3   force =     0.00326197    0.00125594   -0.00348913

     Total force =     0.015979     Total SCF correction =     0.000367


     Computing stress (Cartesian axis) and pressure

          total   stress  (Ry/bohr**3)                   (kbar)     P=       -7.80
  -0.00005638   0.00000000   0.00000240           -8.29        0.00        0.35
   0.00000000  -0.00005833   0.00000000            0.00       -8.58        0.00
   0.00000240   0.00000000  -0.00004441            0.35        0.00       -6.53


     Writing output data file ./pwscf.save/
