
     Program PWSCF v.6.7MaX starts on  2Aug2021 at 17:12:30 

     This program is part of the open-source Quantum ESPRESSO suite
     for quantum simulation of materials; please cite
         "P. Giannozzi et al., J. Phys.:Condens. Matter 21 395502 (2009);
         "P. Giannozzi et al., J. Phys.:Condens. Matter 29 465901 (2017);
          URL http://www.quantum-espresso.org", 
     in publications or presentations arising from this work. More details at
     http://www.quantum-espresso.org/quote

     Parallel version (MPI), running on    48 processors

     MPI processes distributed on     2 nodes
     K-points division:     npool     =       2
     R & G space division:  proc/nbgrp/npool/nimage =      24
     Waiting for input...
     Reading input from standard input
Warning: card &CELL ignored
Warning: card CELL_DYNAMICS             = 'BFGS', ignored
Warning: card PRESS                     = '0.0', ignored
Warning: card PRESS_CONV_THR            = '0.5', ignored
Warning: card / ignored
     Message from routine read_cards :
     DEPRECATED: no units specified in CELL_PARAMETERS card

     Current dimensions of program PWSCF are:
     Max number of different atomic species (ntypx) = 10
     Max number of k-points (npk) =  40000
     Max angular momentum in pseudopotentials (lmaxx) =  3
     Message from routine cell_base_init:
     DEPRECATED: use true lattice parameter, not A to a.u. conversion factor
 end of file reached, closing tag not found
     file Er.pbe-spdn-kjpaw_psl.1.0.0.UPF: wavefunction(s)  6S 5D renormalized
     file Br.pbe-dn-kjpaw_psl.1.0.0.UPF: wavefunction(s)  4S 4P 3D renormalized

     Subspace diagonalization in iterative solution of the eigenvalue problem:
     a serial algorithm will be used

     Found symmetry operation: I + ( -0.5000 -0.5000  0.0000)
     This is a supercell, fractional translations are disabled
     Message from routine setup:
     using ibrav=0 with symmetry is DISCOURAGED, use correct ibrav instead
 
     Parallelization info
     --------------------
     sticks:   dense  smooth     PW     G-vecs:    dense   smooth      PW
     Min         494     395    107                29013    20763    2933
     Max         495     396    108                29014    20766    2936
     Sum       11877    9495   2577               696327   498349   70417
 


     bravais-lattice index     =            0
     lattice parameter (alat)  =       1.8897  a.u.
     unit-cell volume          =    3688.3023 (a.u.)^3
     number of atoms/cell      =           20
     number of atomic types    =            3
     number of electrons       =       244.00
     number of Kohn-Sham states=          146
     kinetic-energy cutoff     =     100.0000  Ry
     charge density cutoff     =     500.0000  Ry
     scf convergence threshold =      1.0E-08
     mixing beta               =       0.4000
     number of iterations used =            8  plain     mixing
     Exchange-correlation= SLA  PW   PBX  PBC
                           (   1   4   3   4   0   0   0)

     celldm(1)=   1.889726  celldm(2)=   0.000000  celldm(3)=   0.000000
     celldm(4)=   0.000000  celldm(5)=   0.000000  celldm(6)=   0.000000

     crystal axes: (cart. coord. in units of alat)
               a(1) = (   6.967356   0.000000   0.000000 )  
               a(2) = (   0.000000  11.998880   0.000000 )  
               a(3) = (  -2.324723   0.000000   6.537643 )  

     reciprocal axes: (cart. coord. in units 2 pi/alat)
               b(1) = (  0.143526  0.000000  0.051037 )  
               b(2) = (  0.000000  0.083341  0.000000 )  
               b(3) = (  0.000000  0.000000  0.152960 )  


     PseudoPot. # 1 for Li read from file:
     /central/groups/SeeGroup/qe_pseudopotentials/Li.pbe-s-kjpaw_psl.1.0.0.UPF
     MD5 check sum: cc502796ee09d8b62ac346ee26e59beb
     Pseudo is Projector augmented-wave, Zval =  3.0
     Generated using &quot;atomic&quot; code by A. Dal Corso  v.6.3
     Shape of augmentation charge: PSQ
     Using radial grid of 1017 points,  4 beta functions with: 
                l(1) =   0
                l(2) =   0
                l(3) =   1
                l(4) =   1
     Q(r) pseudized with 0 coefficients 


     PseudoPot. # 2 for Er read from file:
     /central/groups/SeeGroup/qe_pseudopotentials/Er.pbe-spdn-kjpaw_psl.1.0.0.UPF
     MD5 check sum: a923254af2aef992cff3e18bc73f2922
     Pseudo is Projector augmented-wave + core cor, Zval = 11.0
     Generated using &quot;atomic&quot; code by A. Dal Corso  v.6.2.2
     Shape of augmentation charge: PSQ
     Using radial grid of 1267 points,  6 beta functions with: 
                l(1) =   0
                l(2) =   0
                l(3) =   1
                l(4) =   1
                l(5) =   2
                l(6) =   2
     Q(r) pseudized with 0 coefficients 


     PseudoPot. # 3 for Br read from file:
     /central/groups/SeeGroup/qe_pseudopotentials/Br.pbe-dn-kjpaw_psl.1.0.0.UPF
     MD5 check sum: 4ca4ebabfd6065c7bb707b2ebe99e9b3
     Pseudo is Projector augmented-wave + core cor, Zval = 17.0
     Generated using &quot;atomic&quot; code by A. Dal Corso  v.6.3
     Shape of augmentation charge: PSQ
     Using radial grid of 1213 points,  6 beta functions with: 
                l(1) =   0
                l(2) =   0
                l(3) =   1
                l(4) =   1
                l(5) =   2
                l(6) =   2
     Q(r) pseudized with 0 coefficients 


     atomic species   valence    mass     pseudopotential
        Li             3.00     6.94100     Li( 1.00)
        Er            11.00   167.25900     Er( 1.00)
        Br            17.00    79.90400     Br( 1.00)

      2 Sym. Ops. (no inversion) found



   Cartesian axes

     site n.     atom                  positions (alat units)
         1           Li  tau(   1) = (   3.4836780   9.9564306   0.0000000  )
         2           Li  tau(   2) = (   3.4836780   2.0173957   0.0000000  )
         3           Li  tau(   3) = (   2.3213165   7.8846440   3.2688215  )
         4           Li  tau(   4) = (   0.0000000   3.9569906   0.0000000  )
         5           Li  tau(   5) = (   0.0000000   8.0168357   0.0000000  )
         6           Li  tau(   6) = (  -1.1623615   1.8852040   3.2688215  )
         7           Er  tau(   7) = (   3.4836780   5.9699947   0.0000000  )
         8           Er  tau(   8) = (   0.0000000  11.9694347   0.0000000  )
         9           Br  tau(   9) = (   3.4471523   9.9581465   5.0158758  )
        10           Br  tau(  10) = (   3.5847273   1.9854607   4.9258002  )
        11           Br  tau(  11) = (   1.0579057   1.9854607   1.6118428  )
        12           Br  tau(  12) = (   1.1954807   9.9581465   1.5217672  )
        13           Br  tau(  13) = (  -0.0150075   0.0698395   4.9769442  )
        14           Br  tau(  14) = (   4.6576405   0.0698395   1.5606988  )
        15           Br  tau(  15) = (  -0.0365257   3.9587065   5.0158758  )
        16           Br  tau(  16) = (   0.1010493   7.9849007   4.9258002  )
        17           Br  tau(  17) = (   4.5415837   7.9849007   1.6118428  )
        18           Br  tau(  18) = (   4.6791587   3.9587065   1.5217672  )
        19           Br  tau(  19) = (   3.4686705   6.0692795   4.9769442  )
        20           Br  tau(  20) = (   1.1739625   6.0692795   1.5606988  )

     number of k points=     4  Fermi-Dirac smearing, width (Ry)=  0.0070
                       cart. coord. in units 2pi/alat
        k(    1) = (   0.0000000   0.0000000   0.0000000), wk =   0.5000000
        k(    2) = (   0.0000000   0.0000000  -0.0764802), wk =   0.5000000
        k(    3) = (  -0.0717632   0.0000000  -0.0255183), wk =   0.5000000
        k(    4) = (  -0.0717632   0.0000000  -0.1019985), wk =   0.5000000

     Dense  grid:   696327 G-vectors     FFT dimensions: (  96, 162,  96)

     Smooth grid:   498349 G-vectors     FFT dimensions: (  90, 150,  90)

     Estimated max dynamical RAM per process >     101.62 MB

     Estimated total dynamical RAM >       4.76 GB

     Initial potential from superposition of free atoms

     starting charge  243.93496, renormalised to  244.00000
     Starting wfcs are  164 randomized atomic wfcs
     Checking if some PAW data can be deallocated... 

     total cpu time spent up to now is        3.7 secs

     Self-consistent Calculation

     iteration #  1     ecut=   100.00 Ry     beta= 0.40
     Davidson diagonalization with overlap
     ethr =  1.00E-02,  avg # of iterations =  5.2

     Threshold (ethr) on eigenvalues was too large:
     Diagonalizing with lowered threshold

     Davidson diagonalization with overlap
     ethr =  1.19E-04,  avg # of iterations =  7.5

     total cpu time spent up to now is       10.5 secs

     total energy              =   -6740.51678883 Ry
     estimated scf accuracy    <       0.28640553 Ry

     iteration #  2     ecut=   100.00 Ry     beta= 0.40
     Davidson diagonalization with overlap
     ethr =  1.17E-04,  avg # of iterations =  2.0

     total cpu time spent up to now is       13.2 secs

     total energy              =   -6740.54310772 Ry
     estimated scf accuracy    <       0.04003156 Ry

     iteration #  3     ecut=   100.00 Ry     beta= 0.40
     Davidson diagonalization with overlap
     ethr =  1.64E-05,  avg # of iterations =  7.8

     total cpu time spent up to now is       16.9 secs

     total energy              =   -6740.54830412 Ry
     estimated scf accuracy    <       0.00559972 Ry

     iteration #  4     ecut=   100.00 Ry     beta= 0.40
     Davidson diagonalization with overlap
     ethr =  2.29E-06,  avg # of iterations =  9.0

     total cpu time spent up to now is       20.8 secs

     total energy              =   -6740.54899553 Ry
     estimated scf accuracy    <       0.00077448 Ry

     iteration #  5     ecut=   100.00 Ry     beta= 0.40
     Davidson diagonalization with overlap
     ethr =  3.17E-07,  avg # of iterations =  2.0

     total cpu time spent up to now is       23.4 secs

     total energy              =   -6740.54912740 Ry
     estimated scf accuracy    <       0.00016227 Ry

     iteration #  6     ecut=   100.00 Ry     beta= 0.40
     Davidson diagonalization with overlap
     ethr =  6.65E-08,  avg # of iterations =  2.0

     total cpu time spent up to now is       26.0 secs

     total energy              =   -6740.54914394 Ry
     estimated scf accuracy    <       0.00002986 Ry

     iteration #  7     ecut=   100.00 Ry     beta= 0.40
     Davidson diagonalization with overlap
     ethr =  1.22E-08,  avg # of iterations =  2.0

     total cpu time spent up to now is       28.6 secs

     total energy              =   -6740.54914547 Ry
     estimated scf accuracy    <       0.00000121 Ry

     iteration #  8     ecut=   100.00 Ry     beta= 0.40
     Davidson diagonalization with overlap
     ethr =  4.96E-10,  avg # of iterations =  2.0

     total cpu time spent up to now is       31.4 secs

     total energy              =   -6740.54914559 Ry
     estimated scf accuracy    <       0.00000013 Ry

     iteration #  9     ecut=   100.00 Ry     beta= 0.40
     Davidson diagonalization with overlap
     ethr =  5.46E-11,  avg # of iterations =  2.0

     total cpu time spent up to now is       34.1 secs

     total energy              =   -6740.54914561 Ry
     estimated scf accuracy    <       0.00000001 Ry

     iteration # 10     ecut=   100.00 Ry     beta= 0.40
     Davidson diagonalization with overlap
     ethr =  4.37E-12,  avg # of iterations =  2.5

     total cpu time spent up to now is       36.9 secs

     End of self-consistent calculation

          k = 0.0000 0.0000 0.0000 ( 62259 PWs)   bands (ev):

   -56.2653 -56.2653 -56.2653 -56.2653 -56.2623 -56.2623 -56.2623 -56.2623
   -56.2473 -56.2473 -56.2473 -56.2473 -56.2417 -56.2416 -56.2416 -56.2416
   -56.2392 -56.2392 -56.2392 -56.2391 -56.2280 -56.2279 -56.2279 -56.2279
   -56.2160 -56.2160 -56.2160 -56.2160 -56.2120 -56.2119 -56.2119 -56.2119
   -56.2010 -56.2010 -56.2009 -56.2009 -56.1981 -56.1981 -56.1981 -56.1981
   -56.1829 -56.1828 -56.1828 -56.1828 -56.1819 -56.1819 -56.1819 -56.1819
   -56.1800 -56.1799 -56.1799 -56.1799 -56.1744 -56.1744 -56.1743 -56.1743
   -56.1710 -56.1710 -56.1710 -56.1709 -46.9312 -46.9311 -42.0699 -42.0698
   -41.8024 -41.8024 -41.7759 -41.7759 -20.7607 -20.7606 -20.7536 -20.7535
   -20.7520 -20.7517 -10.7144 -10.5328 -10.3877 -10.2803 -10.2709 -10.2616
   -10.2289 -10.2243 -10.2167 -10.1523 -10.1468 -10.1214  -0.1637  -0.1545
     0.2229   0.2492   0.2680   0.4126   0.4600   0.6274   0.6773   0.7460
     0.8676   0.8678   0.8780   1.0031   1.1306   1.2469   1.2694   1.2729
     1.2788   1.4884   1.5307   1.7005   1.7460   1.9434   1.9858   2.0226
     2.0616   2.0786   2.1927   2.2462   2.3382   2.4688   2.5340   2.5341
     2.5795   2.5854   7.0503   7.3054   7.4483   7.4673   7.4680   7.5215
     7.5505   8.7286   8.7452   8.8127   9.1101   9.1661   9.3675   9.4015
     9.4785   9.7280   9.9192  10.3134  10.3280  10.3801  10.6727  10.8598
    10.9522  11.1039

          k = 0.0000 0.0000-0.0765 ( 62272 PWs)   bands (ev):

   -56.2653 -56.2653 -56.2653 -56.2653 -56.2623 -56.2623 -56.2623 -56.2623
   -56.2473 -56.2473 -56.2473 -56.2473 -56.2417 -56.2416 -56.2416 -56.2416
   -56.2392 -56.2392 -56.2392 -56.2391 -56.2279 -56.2279 -56.2279 -56.2279
   -56.2160 -56.2160 -56.2160 -56.2160 -56.2119 -56.2119 -56.2119 -56.2119
   -56.2010 -56.2010 -56.2009 -56.2009 -56.1981 -56.1981 -56.1981 -56.1981
   -56.1828 -56.1828 -56.1828 -56.1828 -56.1819 -56.1819 -56.1819 -56.1819
   -56.1800 -56.1799 -56.1799 -56.1799 -56.1744 -56.1744 -56.1743 -56.1743
   -56.1710 -56.1710 -56.1710 -56.1709 -46.9312 -46.9311 -42.0699 -42.0698
   -41.8024 -41.8024 -41.7759 -41.7759 -20.7607 -20.7606 -20.7537 -20.7536
   -20.7520 -20.7517 -10.6030 -10.4498 -10.3722 -10.3372 -10.3124 -10.2768
   -10.2649 -10.2497 -10.2334 -10.1755 -10.1551 -10.1347   0.0300   0.1884
     0.1958   0.2538   0.3986   0.5035   0.5877   0.6790   0.6906   0.7397
     0.7876   0.9544   0.9957   1.0503   1.0999   1.2140   1.2763   1.3656
     1.3936   1.4595   1.4718   1.5379   1.6749   1.8008   1.8926   1.9054
     1.9595   2.0757   2.1277   2.1384   2.1497   2.2934   2.3044   2.3409
     2.4626   2.4658   7.1935   7.2168   7.2519   7.3296   7.4900   7.5803
     8.6417   8.7967   8.9123   9.0815   9.1965   9.4497   9.8953   9.9508
     9.9612  10.0416  10.0440  10.1899  10.2509  10.3087  10.7781  10.8106
    10.9774  10.9902

          k =-0.0718 0.0000-0.0255 ( 62286 PWs)   bands (ev):

   -56.2653 -56.2653 -56.2653 -56.2653 -56.2623 -56.2623 -56.2623 -56.2623
   -56.2473 -56.2473 -56.2473 -56.2473 -56.2417 -56.2416 -56.2416 -56.2416
   -56.2392 -56.2392 -56.2392 -56.2392 -56.2279 -56.2279 -56.2279 -56.2279
   -56.2160 -56.2160 -56.2160 -56.2160 -56.2119 -56.2119 -56.2119 -56.2119
   -56.2010 -56.2010 -56.2009 -56.2009 -56.1981 -56.1981 -56.1981 -56.1981
   -56.1828 -56.1828 -56.1828 -56.1828 -56.1819 -56.1819 -56.1819 -56.1819
   -56.1800 -56.1799 -56.1799 -56.1799 -56.1744 -56.1744 -56.1743 -56.1743
   -56.1710 -56.1710 -56.1709 -56.1709 -46.9312 -46.9311 -42.0699 -42.0698
   -41.8024 -41.8024 -41.7759 -41.7759 -20.7607 -20.7606 -20.7538 -20.7537
   -20.7519 -20.7518 -10.5273 -10.5273 -10.3396 -10.3396 -10.3164 -10.3164
   -10.2621 -10.2621 -10.1841 -10.1841 -10.1532 -10.1532   0.0713   0.0713
     0.3835   0.3835   0.4305   0.4305   0.5135   0.5135   0.7392   0.7392
     0.8427   0.8428   1.0098   1.0098   1.1257   1.1257   1.1528   1.1528
     1.5951   1.5951   1.6806   1.6806   1.7229   1.7229   1.8428   1.8428
     2.0502   2.0502   2.0677   2.0677   2.2034   2.2034   2.3705   2.3705
     2.4270   2.4270   7.2755   7.2755   7.3153   7.3153   7.4302   7.4302
     8.7504   8.7504   8.9116   8.9116   9.2917   9.2918   9.8031   9.8031
    10.0647  10.0647  10.1600  10.1600  10.3780  10.3780  10.7193  10.7194
    11.1735  11.1736

          k =-0.0718 0.0000-0.1020 ( 62288 PWs)   bands (ev):

   -56.2653 -56.2653 -56.2653 -56.2653 -56.2623 -56.2623 -56.2623 -56.2623
   -56.2473 -56.2473 -56.2473 -56.2473 -56.2417 -56.2416 -56.2416 -56.2416
   -56.2392 -56.2392 -56.2392 -56.2391 -56.2279 -56.2279 -56.2279 -56.2279
   -56.2160 -56.2160 -56.2160 -56.2160 -56.2120 -56.2119 -56.2119 -56.2119
   -56.2010 -56.2010 -56.2009 -56.2009 -56.1981 -56.1981 -56.1981 -56.1981
   -56.1828 -56.1828 -56.1828 -56.1828 -56.1819 -56.1819 -56.1819 -56.1819
   -56.1800 -56.1799 -56.1799 -56.1799 -56.1744 -56.1744 -56.1743 -56.1743
   -56.1710 -56.1710 -56.1710 -56.1709 -46.9312 -46.9311 -42.0699 -42.0698
   -41.8024 -41.8024 -41.7759 -41.7759 -20.7607 -20.7606 -20.7539 -20.7538
   -20.7519 -20.7518 -10.4730 -10.4730 -10.3443 -10.3443 -10.3145 -10.3145
   -10.2691 -10.2691 -10.2198 -10.2198 -10.1650 -10.1650  -0.0736  -0.0736
     0.1927   0.1927   0.3287   0.3287   0.3949   0.3949   0.6131   0.6131
     0.8661   0.8662   1.1826   1.1827   1.3024   1.3024   1.5732   1.5732
     1.6465   1.6465   1.7023   1.7023   1.8261   1.8261   1.8515   1.8515
     2.0491   2.0491   2.1008   2.1008   2.2858   2.2858   2.3140   2.3140
     2.4624   2.4624   7.1535   7.1535   7.2217   7.2217   7.2722   7.2723
     8.6339   8.6339   9.0262   9.0262   9.1869   9.1869   9.3184   9.3184
     9.5705   9.5705   9.7606   9.7606  10.0977  10.0977  10.4018  10.4018
    11.0430  11.0430

     the Fermi energy is     4.8735 ev

!    total energy              =   -6740.54914562 Ry

     total all-electron energy =   -114993.565103 Ry
     estimated scf accuracy    <          1.4E-09 Ry
     smearing contrib. (-TS)   =      -0.00000000 Ry
     internal energy E=F+TS    =   -6740.54914562 Ry

     The total energy is F=E-TS. E is the sum of the following terms:
     one-electron contribution =   -3515.88047784 Ry
     hartree contribution      =    1687.97830414 Ry
     xc contribution           =    -503.21987964 Ry
     ewald contribution        =   -1690.68325647 Ry
     one-center paw contrib.   =   -2718.74383581 Ry

     convergence has been achieved in  10 iterations

     Forces acting on atoms (cartesian axes, Ry/au):

     atom    1 type  1   force =     0.00000000   -0.00210020    0.00000000
     atom    2 type  1   force =     0.00000000    0.00043434    0.00000000
     atom    3 type  1   force =     0.00000000   -0.00045780    0.00000000
     atom    4 type  1   force =     0.00000000   -0.00210117    0.00000000
     atom    5 type  1   force =     0.00000000    0.00043700    0.00000000
     atom    6 type  1   force =     0.00000000   -0.00045896    0.00000000
     atom    7 type  2   force =     0.00000000    0.00078319    0.00000000
     atom    8 type  2   force =     0.00000000    0.00078112    0.00000000
     atom    9 type  3   force =     0.00098167    0.00134569    0.00450990
     atom   10 type  3   force =     0.00371750   -0.00225259    0.00169556
     atom   11 type  3   force =    -0.00371750   -0.00225259   -0.00169556
     atom   12 type  3   force =    -0.00098167    0.00134569   -0.00450990
     atom   13 type  3   force =    -0.00354105    0.00159986    0.00342203
     atom   14 type  3   force =     0.00354105    0.00159986   -0.00342203
     atom   15 type  3   force =     0.00097084    0.00128987    0.00451475
     atom   16 type  3   force =     0.00369745   -0.00222605    0.00167839
     atom   17 type  3   force =    -0.00369745   -0.00222605   -0.00167839
     atom   18 type  3   force =    -0.00097084    0.00128987   -0.00451475
     atom   19 type  3   force =    -0.00350385    0.00158446    0.00342077
     atom   20 type  3   force =     0.00350385    0.00158446   -0.00342077

     Total force =     0.017207     Total SCF correction =     0.000202


     Computing stress (Cartesian axis) and pressure

          total   stress  (Ry/bohr**3)                   (kbar)     P=       -4.12
  -0.00003821   0.00000000   0.00000187           -5.62        0.00        0.28
   0.00000000  -0.00001916   0.00000000            0.00       -2.82        0.00
   0.00000187   0.00000000  -0.00002675            0.28        0.00       -3.94


     Writing output data file ./pwscf.save/
 
     init_run     :      2.85s CPU      3.40s WALL (       1 calls)
     electrons    :     32.22s CPU     33.46s WALL (       1 calls)
     forces       :      1.49s CPU      1.51s WALL (       1 calls)
     stress       :      6.46s CPU      6.53s WALL (       1 calls)

     Called by init_run:
     wfcinit      :      0.79s CPU      0.85s WALL (       1 calls)
     potinit      :      0.71s CPU      0.98s WALL (       1 calls)
     hinit0       :      0.96s CPU      1.15s WALL (       1 calls)

     Called by electrons:
     c_bands      :     24.04s CPU     24.49s WALL (      11 calls)
     sum_band     :      5.26s CPU      5.58s WALL (      11 calls)
     v_of_rho     :      0.56s CPU      0.57s WALL (      11 calls)
     newd         :      1.42s CPU      1.62s WALL (      11 calls)
     PAW_pot      :      0.94s CPU      0.95s WALL (      11 calls)
     mix_rho      :      0.14s CPU      0.14s WALL (      11 calls)

     Called by c_bands:
     init_us_2    :      0.26s CPU      0.27s WALL (      50 calls)
     cegterg      :     22.40s CPU     22.82s WALL (      22 calls)

     Called by *egterg:
     cdiaghg      :      3.71s CPU      3.75s WALL (     122 calls)
     h_psi        :     12.41s CPU     12.63s WALL (     126 calls)
     s_psi        :      1.31s CPU      1.31s WALL (     126 calls)
     g_psi        :      0.05s CPU      0.05s WALL (     102 calls)

     Called by h_psi:
     h_psi:calbec :      1.38s CPU      1.39s WALL (     126 calls)
     vloc_psi     :      9.59s CPU      9.70s WALL (     126 calls)
     add_vuspsi   :      1.29s CPU      1.30s WALL (     126 calls)

     General routines
     calbec       :      2.62s CPU      2.63s WALL (     158 calls)
     fft          :      0.45s CPU      0.65s WALL (     167 calls)
     ffts         :      0.04s CPU      0.04s WALL (      22 calls)
     fftw         :     10.54s CPU     10.67s WALL (   18884 calls)
     interpolate  :      0.05s CPU      0.06s WALL (      11 calls)
 
     Parallel routines
     fft_scatt_xy :      1.84s CPU      1.86s WALL (   19073 calls)
     fft_scatt_yz :      4.14s CPU      4.20s WALL (   19073 calls)
 
     PWSCF        :     43.55s CPU     46.27s WALL

 
   This run was terminated on:  17:13:16   2Aug2021            

=------------------------------------------------------------------------------=
   JOB DONE.
=------------------------------------------------------------------------------=
