
     Program PWSCF v.6.7MaX starts on  2Aug2021 at 17:30:56 

     This program is part of the open-source Quantum ESPRESSO suite
     for quantum simulation of materials; please cite
         "P. Giannozzi et al., J. Phys.:Condens. Matter 21 395502 (2009);
         "P. Giannozzi et al., J. Phys.:Condens. Matter 29 465901 (2017);
          URL http://www.quantum-espresso.org", 
     in publications or presentations arising from this work. More details at
     http://www.quantum-espresso.org/quote

     Parallel version (MPI), running on    48 processors

     MPI processes distributed on     2 nodes
     K-points division:     npool     =       2
     R & G space division:  proc/nbgrp/npool/nimage =      24
     Waiting for input...
     Reading input from standard input
Warning: card &CELL ignored
Warning: card CELL_DYNAMICS             = 'BFGS', ignored
Warning: card PRESS                     = '0.0', ignored
Warning: card PRESS_CONV_THR            = '0.5', ignored
Warning: card / ignored
     Message from routine read_cards :
     DEPRECATED: no units specified in CELL_PARAMETERS card

     Current dimensions of program PWSCF are:
     Max number of different atomic species (ntypx) = 10
     Max number of k-points (npk) =  40000
     Max angular momentum in pseudopotentials (lmaxx) =  3
     Message from routine cell_base_init:
     DEPRECATED: use true lattice parameter, not A to a.u. conversion factor
 end of file reached, closing tag not found
     file Er.pbe-spdn-kjpaw_psl.1.0.0.UPF: wavefunction(s)  6S 5D renormalized
     file Br.pbe-dn-kjpaw_psl.1.0.0.UPF: wavefunction(s)  4S 4P 3D renormalized

     Subspace diagonalization in iterative solution of the eigenvalue problem:
     a serial algorithm will be used

     Found symmetry operation: I + ( -0.5000 -0.5000  0.0000)
     This is a supercell, fractional translations are disabled
     Message from routine setup:
     using ibrav=0 with symmetry is DISCOURAGED, use correct ibrav instead
 
     Parallelization info
     --------------------
     sticks:   dense  smooth     PW     G-vecs:    dense   smooth      PW
     Min         296     237     66                13483     9650    1413
     Max         299     238     67                13485     9653    1415
     Sum        7129    5707   1593               323627   231643   33933
 


     bravais-lattice index     =            0
     lattice parameter (alat)  =       1.8897  a.u.
     unit-cell volume          =    3688.3023 (a.u.)^3
     number of atoms/cell      =           20
     number of atomic types    =            3
     number of electrons       =       244.00
     number of Kohn-Sham states=          146
     kinetic-energy cutoff     =      60.0000  Ry
     charge density cutoff     =     300.0000  Ry
     scf convergence threshold =      1.0E-08
     mixing beta               =       0.4000
     number of iterations used =            8  plain     mixing
     Exchange-correlation= SLA  PW   PBX  PBC
                           (   1   4   3   4   0   0   0)

     celldm(1)=   1.889726  celldm(2)=   0.000000  celldm(3)=   0.000000
     celldm(4)=   0.000000  celldm(5)=   0.000000  celldm(6)=   0.000000

     crystal axes: (cart. coord. in units of alat)
               a(1) = (   6.967356   0.000000   0.000000 )  
               a(2) = (   0.000000  11.998880   0.000000 )  
               a(3) = (  -2.324723   0.000000   6.537643 )  

     reciprocal axes: (cart. coord. in units 2 pi/alat)
               b(1) = (  0.143526  0.000000  0.051037 )  
               b(2) = (  0.000000  0.083341  0.000000 )  
               b(3) = (  0.000000  0.000000  0.152960 )  


     PseudoPot. # 1 for Li read from file:
     /central/groups/SeeGroup/qe_pseudopotentials/Li.pbe-s-kjpaw_psl.1.0.0.UPF
     MD5 check sum: cc502796ee09d8b62ac346ee26e59beb
     Pseudo is Projector augmented-wave, Zval =  3.0
     Generated using &quot;atomic&quot; code by A. Dal Corso  v.6.3
     Shape of augmentation charge: PSQ
     Using radial grid of 1017 points,  4 beta functions with: 
                l(1) =   0
                l(2) =   0
                l(3) =   1
                l(4) =   1
     Q(r) pseudized with 0 coefficients 


     PseudoPot. # 2 for Er read from file:
     /central/groups/SeeGroup/qe_pseudopotentials/Er.pbe-spdn-kjpaw_psl.1.0.0.UPF
     MD5 check sum: a923254af2aef992cff3e18bc73f2922
     Pseudo is Projector augmented-wave + core cor, Zval = 11.0
     Generated using &quot;atomic&quot; code by A. Dal Corso  v.6.2.2
     Shape of augmentation charge: PSQ
     Using radial grid of 1267 points,  6 beta functions with: 
                l(1) =   0
                l(2) =   0
                l(3) =   1
                l(4) =   1
                l(5) =   2
                l(6) =   2
     Q(r) pseudized with 0 coefficients 


     PseudoPot. # 3 for Br read from file:
     /central/groups/SeeGroup/qe_pseudopotentials/Br.pbe-dn-kjpaw_psl.1.0.0.UPF
     MD5 check sum: 4ca4ebabfd6065c7bb707b2ebe99e9b3
     Pseudo is Projector augmented-wave + core cor, Zval = 17.0
     Generated using &quot;atomic&quot; code by A. Dal Corso  v.6.3
     Shape of augmentation charge: PSQ
     Using radial grid of 1213 points,  6 beta functions with: 
                l(1) =   0
                l(2) =   0
                l(3) =   1
                l(4) =   1
                l(5) =   2
                l(6) =   2
     Q(r) pseudized with 0 coefficients 


     atomic species   valence    mass     pseudopotential
        Li             3.00     6.94100     Li( 1.00)
        Er            11.00   167.25900     Er( 1.00)
        Br            17.00    79.90400     Br( 1.00)

      2 Sym. Ops. (no inversion) found



   Cartesian axes

     site n.     atom                  positions (alat units)
         1           Li  tau(   1) = (   3.4836780   9.9564306   0.0000000  )
         2           Li  tau(   2) = (   3.4836780   2.0173957   0.0000000  )
         3           Li  tau(   3) = (   2.3213165   7.8846440   3.2688215  )
         4           Li  tau(   4) = (   0.0000000   3.9569906   0.0000000  )
         5           Li  tau(   5) = (   0.0000000   8.0168357   0.0000000  )
         6           Li  tau(   6) = (  -1.1623615   1.8852040   3.2688215  )
         7           Er  tau(   7) = (   3.4836780   5.9699947   0.0000000  )
         8           Er  tau(   8) = (   0.0000000  11.9694347   0.0000000  )
         9           Br  tau(   9) = (   3.4471523   9.9581465   5.0158758  )
        10           Br  tau(  10) = (   3.5847273   1.9854607   4.9258002  )
        11           Br  tau(  11) = (   1.0579057   1.9854607   1.6118428  )
        12           Br  tau(  12) = (   1.1954807   9.9581465   1.5217672  )
        13           Br  tau(  13) = (  -0.0150075   0.0698395   4.9769442  )
        14           Br  tau(  14) = (   4.6576405   0.0698395   1.5606988  )
        15           Br  tau(  15) = (  -0.0365257   3.9587065   5.0158758  )
        16           Br  tau(  16) = (   0.1010493   7.9849007   4.9258002  )
        17           Br  tau(  17) = (   4.5415837   7.9849007   1.6118428  )
        18           Br  tau(  18) = (   4.6791587   3.9587065   1.5217672  )
        19           Br  tau(  19) = (   3.4686705   6.0692795   4.9769442  )
        20           Br  tau(  20) = (   1.1739625   6.0692795   1.5606988  )

     number of k points=    40  Fermi-Dirac smearing, width (Ry)=  0.0070
                       cart. coord. in units 2pi/alat
        k(    1) = (   0.0000000   0.0000000   0.0000000), wk =   0.0185185
        k(    2) = (   0.0000000   0.0000000   0.0254934), wk =   0.0370370
        k(    3) = (   0.0000000   0.0000000   0.0509868), wk =   0.0370370
        k(    4) = (   0.0000000   0.0000000  -0.0764802), wk =   0.0185185
        k(    5) = (   0.0000000   0.0277804   0.0000000), wk =   0.0370370
        k(    6) = (   0.0000000   0.0277804   0.0254934), wk =   0.0740741
        k(    7) = (   0.0000000   0.0277804   0.0509868), wk =   0.0740741
        k(    8) = (   0.0000000   0.0277804  -0.0764802), wk =   0.0370370
        k(    9) = (   0.0239211   0.0000000   0.0085061), wk =   0.0370370
        k(   10) = (   0.0239211   0.0000000   0.0339995), wk =   0.0370370
        k(   11) = (   0.0239211   0.0000000   0.0594929), wk =   0.0370370
        k(   12) = (   0.0239211   0.0000000  -0.0679741), wk =   0.0370370
        k(   13) = (   0.0239211   0.0000000  -0.0424807), wk =   0.0370370
        k(   14) = (   0.0239211   0.0000000  -0.0169873), wk =   0.0370370
        k(   15) = (   0.0239211   0.0277804   0.0085061), wk =   0.0740741
        k(   16) = (   0.0239211   0.0277804   0.0339995), wk =   0.0740741
        k(   17) = (   0.0239211   0.0277804   0.0594929), wk =   0.0740741
        k(   18) = (   0.0239211   0.0277804  -0.0679741), wk =   0.0740741
        k(   19) = (   0.0239211   0.0277804  -0.0424807), wk =   0.0740741
        k(   20) = (   0.0239211   0.0277804  -0.0169873), wk =   0.0740741
        k(   21) = (   0.0478422   0.0000000   0.0170122), wk =   0.0370370
        k(   22) = (   0.0478422   0.0000000   0.0425056), wk =   0.0370370
        k(   23) = (   0.0478422   0.0000000   0.0679990), wk =   0.0370370
        k(   24) = (   0.0478422   0.0000000  -0.0594680), wk =   0.0370370
        k(   25) = (   0.0478422   0.0000000  -0.0339746), wk =   0.0370370
        k(   26) = (   0.0478422   0.0000000  -0.0084812), wk =   0.0370370
        k(   27) = (   0.0478422   0.0277804   0.0170122), wk =   0.0740741
        k(   28) = (   0.0478422   0.0277804   0.0425056), wk =   0.0740741
        k(   29) = (   0.0478422   0.0277804   0.0679990), wk =   0.0740741
        k(   30) = (   0.0478422   0.0277804  -0.0594680), wk =   0.0740741
        k(   31) = (   0.0478422   0.0277804  -0.0339746), wk =   0.0740741
        k(   32) = (   0.0478422   0.0277804  -0.0084812), wk =   0.0740741
        k(   33) = (  -0.0717632   0.0000000  -0.0255183), wk =   0.0185185
        k(   34) = (  -0.0717632   0.0000000  -0.0000249), wk =   0.0370370
        k(   35) = (  -0.0717632   0.0000000   0.0254685), wk =   0.0370370
        k(   36) = (  -0.0717632   0.0000000  -0.1019985), wk =   0.0185185
        k(   37) = (  -0.0717632   0.0277804  -0.0255183), wk =   0.0370370
        k(   38) = (  -0.0717632   0.0277804  -0.0000249), wk =   0.0740741
        k(   39) = (  -0.0717632   0.0277804   0.0254685), wk =   0.0740741
        k(   40) = (  -0.0717632   0.0277804  -0.1019985), wk =   0.0370370

     Dense  grid:   323627 G-vectors     FFT dimensions: (  75, 125,  75)

     Smooth grid:   231643 G-vectors     FFT dimensions: (  72, 120,  72)

     Estimated max dynamical RAM per process >      97.87 MB

     Estimated total dynamical RAM >       4.59 GB

     Check: negative core charge=   -0.000002

     Initial potential from superposition of free atoms

     starting charge  243.93496, renormalised to  244.00000
     Starting wfcs are  164 randomized atomic wfcs
     Checking if some PAW data can be deallocated... 

     total cpu time spent up to now is        5.9 secs

     Self-consistent Calculation

     iteration #  1     ecut=    60.00 Ry     beta= 0.40
     Davidson diagonalization with overlap
     ethr =  1.00E-02,  avg # of iterations =  5.2

     Threshold (ethr) on eigenvalues was too large:
     Diagonalizing with lowered threshold

     Davidson diagonalization with overlap
     ethr =  1.16E-04,  avg # of iterations =  9.5

     total cpu time spent up to now is       40.7 secs

     total energy              =   -6740.44802915 Ry
     estimated scf accuracy    <       0.28212855 Ry

     iteration #  2     ecut=    60.00 Ry     beta= 0.40
     Davidson diagonalization with overlap
     ethr =  1.16E-04,  avg # of iterations =  2.0

     total cpu time spent up to now is       52.2 secs

     total energy              =   -6740.47351235 Ry
     estimated scf accuracy    <       0.03835483 Ry

     iteration #  3     ecut=    60.00 Ry     beta= 0.40
     Davidson diagonalization with overlap
     ethr =  1.57E-05,  avg # of iterations =  7.9

     total cpu time spent up to now is       71.1 secs

     total energy              =   -6740.47852104 Ry
     estimated scf accuracy    <       0.00529962 Ry

     iteration #  4     ecut=    60.00 Ry     beta= 0.40
     Davidson diagonalization with overlap
     ethr =  2.17E-06,  avg # of iterations =  9.9

     total cpu time spent up to now is       91.1 secs

     total energy              =   -6740.47917919 Ry
     estimated scf accuracy    <       0.00077289 Ry

     iteration #  5     ecut=    60.00 Ry     beta= 0.40
     Davidson diagonalization with overlap
     ethr =  3.17E-07,  avg # of iterations =  2.0

     total cpu time spent up to now is      102.2 secs

     total energy              =   -6740.47930698 Ry
     estimated scf accuracy    <       0.00019685 Ry

     iteration #  6     ecut=    60.00 Ry     beta= 0.40
     Davidson diagonalization with overlap
     ethr =  8.07E-08,  avg # of iterations =  2.0

     total cpu time spent up to now is      113.0 secs

     total energy              =   -6740.47932296 Ry
     estimated scf accuracy    <       0.00004017 Ry

     iteration #  7     ecut=    60.00 Ry     beta= 0.40
     Davidson diagonalization with overlap
     ethr =  1.65E-08,  avg # of iterations =  2.0

     total cpu time spent up to now is      123.9 secs

     total energy              =   -6740.47932496 Ry
     estimated scf accuracy    <       0.00000078 Ry

     iteration #  8     ecut=    60.00 Ry     beta= 0.40
     Davidson diagonalization with overlap
     ethr =  3.19E-10,  avg # of iterations =  2.0

     total cpu time spent up to now is      137.1 secs

     total energy              =   -6740.47932519 Ry
     estimated scf accuracy    <       0.00000015 Ry

     iteration #  9     ecut=    60.00 Ry     beta= 0.40
     Davidson diagonalization with overlap
     ethr =  6.21E-11,  avg # of iterations =  2.0

     total cpu time spent up to now is      148.2 secs

     End of self-consistent calculation

          k = 0.0000 0.0000 0.0000 ( 28943 PWs)   bands (ev):

   -56.2566 -56.2566 -56.2566 -56.2566 -56.2537 -56.2537 -56.2537 -56.2537
   -56.2390 -56.2389 -56.2389 -56.2389 -56.2337 -56.2336 -56.2336 -56.2336
   -56.2313 -56.2313 -56.2312 -56.2312 -56.2177 -56.2177 -56.2177 -56.2176
   -56.2056 -56.2056 -56.2055 -56.2055 -56.2019 -56.2018 -56.2018 -56.2018
   -56.1911 -56.1911 -56.1911 -56.1910 -56.1882 -56.1882 -56.1880 -56.1880
   -56.1726 -56.1726 -56.1726 -56.1726 -56.1716 -56.1716 -56.1716 -56.1716
   -56.1710 -56.1710 -56.1709 -56.1709 -56.1648 -56.1648 -56.1646 -56.1646
   -56.1619 -56.1619 -56.1618 -56.1618 -46.9291 -46.9291 -42.0706 -42.0705
   -41.8028 -41.8027 -41.7743 -41.7742 -20.7577 -20.7577 -20.7524 -20.7524
   -20.7523 -20.7521 -10.7206 -10.5398 -10.3937 -10.2874 -10.2777 -10.2684
   -10.2359 -10.2312 -10.2236 -10.1592 -10.1538 -10.1281  -0.1649  -0.1559
     0.2213   0.2472   0.2641   0.4082   0.4573   0.6230   0.6757   0.7446
     0.8653   0.8653   0.8741   0.9995   1.1278   1.2431   1.2653   1.2690
     1.2754   1.4838   1.5264   1.6962   1.7412   1.9398   1.9822   2.0181
     2.0562   2.0740   2.1882   2.2417   2.3333   2.4633   2.5292   2.5293
     2.5741   2.5803   7.0494   7.3106   7.4465   7.4694   7.4730   7.5200
     7.5533   8.7246   8.7570   8.8085   9.1169   9.1671   9.3662   9.3998
     9.4917   9.7339   9.9252  10.3244  10.3254  10.3769  10.7022  10.8936
    10.9492  11.1007

          k = 0.0000 0.0000 0.0255 ( 28949 PWs)   bands (ev):

   -56.2566 -56.2566 -56.2566 -56.2566 -56.2537 -56.2537 -56.2537 -56.2537
   -56.2390 -56.2390 -56.2389 -56.2389 -56.2337 -56.2336 -56.2336 -56.2336
   -56.2313 -56.2313 -56.2312 -56.2312 -56.2177 -56.2177 -56.2177 -56.2176
   -56.2056 -56.2056 -56.2055 -56.2055 -56.2019 -56.2019 -56.2018 -56.2018
   -56.1911 -56.1911 -56.1911 -56.1910 -56.1882 -56.1882 -56.1880 -56.1880
   -56.1727 -56.1726 -56.1726 -56.1726 -56.1716 -56.1716 -56.1716 -56.1716
   -56.1710 -56.1710 -56.1710 -56.1709 -56.1648 -56.1648 -56.1646 -56.1646
   -56.1619 -56.1619 -56.1618 -56.1618 -46.9291 -46.9291 -42.0706 -42.0705
   -41.8028 -41.8027 -41.7743 -41.7742 -20.7578 -20.7577 -20.7524 -20.7524
   -20.7523 -20.7521 -10.6990 -10.5234 -10.3848 -10.2899 -10.2842 -10.2820
   -10.2451 -10.2400 -10.2181 -10.1667 -10.1629 -10.1297  -0.1148  -0.0720
     0.2626   0.2638   0.2977   0.3658   0.4600   0.4972   0.7031   0.8125
     0.8432   0.8947   0.9860   1.0513   1.0869   1.1047   1.2425   1.3617
     1.3646   1.4465   1.4773   1.6709   1.7485   1.9603   1.9985   2.0238
     2.0419   2.1043   2.1746   2.2208   2.3096   2.3529   2.3624   2.5122
     2.5230   2.5237   7.1125   7.2971   7.3756   7.4315   7.4904   7.5371
     7.7914   8.7727   8.7923   8.9645   9.0924   9.1792   9.3161   9.3725
     9.6517   9.9960  10.0303  10.1238  10.3649  10.6254  10.6815  10.7374
    10.9868  11.1900

          k = 0.0000 0.0000 0.0510 ( 28940 PWs)   bands (ev):

   -56.2566 -56.2566 -56.2566 -56.2565 -56.2537 -56.2537 -56.2537 -56.2537
   -56.2390 -56.2390 -56.2389 -56.2389 -56.2337 -56.2336 -56.2336 -56.2336
   -56.2313 -56.2313 -56.2312 -56.2312 -56.2177 -56.2177 -56.2177 -56.2176
   -56.2056 -56.2056 -56.2055 -56.2055 -56.2019 -56.2019 -56.2018 -56.2018
   -56.1911 -56.1911 -56.1911 -56.1910 -56.1882 -56.1882 -56.1880 -56.1880
   -56.1726 -56.1726 -56.1726 -56.1726 -56.1716 -56.1716 -56.1716 -56.1716
   -56.1710 -56.1710 -56.1710 -56.1709 -56.1648 -56.1648 -56.1646 -56.1646
   -56.1619 -56.1619 -56.1618 -56.1618 -46.9291 -46.9291 -42.0706 -42.0705
   -41.8028 -41.8027 -41.7743 -41.7742 -20.7578 -20.7578 -20.7524 -20.7524
   -20.7524 -20.7521 -10.6459 -10.4836 -10.3619 -10.3399 -10.3017 -10.2856
   -10.2646 -10.2394 -10.2343 -10.1813 -10.1652 -10.1357  -0.0242   0.1056
     0.2280   0.2918   0.3630   0.4378   0.4813   0.5461   0.6914   0.7762
     0.8414   0.8954   0.9490   1.0712   1.1009   1.2153   1.3213   1.3500
     1.3989   1.4145   1.5345   1.5636   1.7672   1.8177   1.8979   1.9844
     2.0647   2.0666   2.0871   2.1333   2.1840   2.2718   2.3262   2.3848
     2.4770   2.4841   7.2214   7.2451   7.2584   7.3444   7.4939   7.5625
     8.3914   8.7195   8.9087   9.0094   9.1204   9.3910   9.5601   9.7124
     9.8360   9.9567  10.1355  10.2610  10.4113  10.6733  10.7324  10.8612
    10.8981  11.0246

          k = 0.0000 0.0000-0.0765 ( 28930 PWs)   bands (ev):

   -56.2567 -56.2566 -56.2566 -56.2565 -56.2537 -56.2537 -56.2537 -56.2537
   -56.2390 -56.2389 -56.2389 -56.2389 -56.2337 -56.2336 -56.2336 -56.2336
   -56.2313 -56.2313 -56.2312 -56.2312 -56.2177 -56.2177 -56.2177 -56.2176
   -56.2056 -56.2056 -56.2055 -56.2055 -56.2019 -56.2019 -56.2018 -56.2018
   -56.1911 -56.1911 -56.1911 -56.1910 -56.1882 -56.1882 -56.1880 -56.1880
   -56.1727 -56.1726 -56.1726 -56.1726 -56.1716 -56.1716 -56.1716 -56.1716
   -56.1710 -56.1710 -56.1709 -56.1709 -56.1648 -56.1648 -56.1646 -56.1646
   -56.1619 -56.1619 -56.1618 -56.1618 -46.9291 -46.9291 -42.0706 -42.0705
   -41.8028 -41.8027 -41.7743 -41.7742 -20.7578 -20.7578 -20.7524 -20.7524
   -20.7524 -20.7521 -10.6094 -10.4569 -10.3789 -10.3436 -10.3185 -10.2840
   -10.2718 -10.2569 -10.2399 -10.1821 -10.1623 -10.1413   0.0267   0.1851
     0.1945   0.2519   0.3976   0.4998   0.5841   0.6777   0.6894   0.7359
     0.7858   0.9508   0.9926   1.0472   1.0962   1.2100   1.2727   1.3616
     1.3905   1.4557   1.4675   1.5334   1.6702   1.7963   1.8879   1.9009
     1.9552   2.0708   2.1230   2.1343   2.1450   2.2886   2.2996   2.3358
     2.4580   2.4609   7.1935   7.2199   7.2535   7.3286   7.4895   7.5794
     8.6466   8.8017   8.9141   9.0818   9.1956   9.4483   9.8960   9.9644
     9.9698  10.0482  10.0519  10.1933  10.2742  10.3116  10.7778  10.8268
    10.9900  10.9956

          k = 0.0000 0.0278 0.0000 ( 28954 PWs)   bands (ev):

   -56.2566 -56.2566 -56.2566 -56.2566 -56.2537 -56.2537 -56.2537 -56.2537
   -56.2390 -56.2389 -56.2389 -56.2389 -56.2337 -56.2336 -56.2336 -56.2336
   -56.2313 -56.2313 -56.2312 -56.2312 -56.2177 -56.2177 -56.2177 -56.2177
   -56.2056 -56.2056 -56.2056 -56.2055 -56.2019 -56.2019 -56.2019 -56.2018
   -56.1911 -56.1911 -56.1911 -56.1911 -56.1882 -56.1882 -56.1880 -56.1880
   -56.1726 -56.1726 -56.1726 -56.1726 -56.1716 -56.1716 -56.1716 -56.1716
   -56.1710 -56.1710 -56.1710 -56.1709 -56.1648 -56.1648 -56.1646 -56.1646
   -56.1619 -56.1619 -56.1618 -56.1618 -46.9291 -46.9291 -42.0706 -42.0705
   -41.8028 -41.8027 -41.7743 -41.7742 -20.7577 -20.7577 -20.7524 -20.7523
   -20.7523 -20.7522 -10.6890 -10.6072 -10.3428 -10.2997 -10.2871 -10.2843
   -10.2076 -10.2066 -10.2018 -10.1725 -10.1681 -10.1526  -0.1356  -0.1297
     0.1296   0.1451   0.3005   0.3759   0.4856   0.5862   0.6675   0.7644
     0.7888   0.8453   1.0686   1.0978   1.1240   1.1413   1.2224   1.2808
     1.4791   1.5611   1.6814   1.6895   1.7435   1.8868   1.8995   1.9027
     2.0075   2.2029   2.2721   2.2966   2.3003   2.3082   2.4122   2.4759
     2.5385   2.5658   7.1712   7.3352   7.4639   7.4648   7.4674   7.5004
     7.7977   8.4616   8.8142   8.8996   9.0541   9.1389   9.3412   9.4015
     9.4842   9.7525  10.0964  10.1705  10.1951  10.3182  10.7855  10.8859
    11.1283  11.1364

          k = 0.0000 0.0278 0.0255 ( 28933 PWs)   bands (ev):

   -56.2566 -56.2566 -56.2566 -56.2566 -56.2537 -56.2537 -56.2537 -56.2537
   -56.2390 -56.2389 -56.2389 -56.2389 -56.2337 -56.2336 -56.2336 -56.2336
   -56.2313 -56.2313 -56.2312 -56.2312 -56.2177 -56.2177 -56.2177 -56.2176
   -56.2056 -56.2056 -56.2055 -56.2055 -56.2019 -56.2019 -56.2018 -56.2018
   -56.1911 -56.1911 -56.1911 -56.1910 -56.1882 -56.1882 -56.1880 -56.1880
   -56.1727 -56.1726 -56.1726 -56.1726 -56.1716 -56.1716 -56.1716 -56.1716
   -56.1710 -56.1710 -56.1710 -56.1709 -56.1648 -56.1648 -56.1646 -56.1646
   -56.1619 -56.1619 -56.1618 -56.1618 -46.9291 -46.9291 -42.0706 -42.0705
   -41.8028 -41.8027 -41.7743 -41.7742 -20.7578 -20.7577 -20.7524 -20.7523
   -20.7523 -20.7522 -10.6683 -10.5888 -10.3399 -10.3053 -10.2898 -10.2877
   -10.2273 -10.2154 -10.1916 -10.1818 -10.1803 -10.1498  -0.0896  -0.0688
     0.1907   0.1950   0.3284   0.3632   0.4834   0.5083   0.6152   0.6936
     0.8355   0.9711   1.0143   1.0943   1.1291   1.1931   1.2316   1.4288
     1.4709   1.6005   1.6037   1.6576   1.7137   1.8583   1.9002   1.9262
     2.0142   2.1201   2.1969   2.2270   2.3019   2.3140   2.3484   2.4526
     2.4775   2.4891   7.2307   7.3397   7.3803   7.4370   7.4501   7.4974
     8.0334   8.5686   8.8476   8.8823   9.1849   9.2423   9.4021   9.4570
     9.6360   9.9087   9.9626  10.0559  10.3929  10.5904  10.6789  10.6821
    10.9655  11.0971

          k = 0.0000 0.0278 0.0510 ( 28957 PWs)   bands (ev):

   -56.2566 -56.2566 -56.2566 -56.2566 -56.2537 -56.2537 -56.2537 -56.2537
   -56.2390 -56.2390 -56.2389 -56.2389 -56.2337 -56.2336 -56.2336 -56.2336
   -56.2313 -56.2313 -56.2312 -56.2312 -56.2177 -56.2177 -56.2177 -56.2177
   -56.2056 -56.2056 -56.2055 -56.2055 -56.2019 -56.2019 -56.2019 -56.2018
   -56.1911 -56.1911 -56.1911 -56.1910 -56.1882 -56.1882 -56.1880 -56.1880
   -56.1727 -56.1726 -56.1726 -56.1726 -56.1717 -56.1716 -56.1716 -56.1716
   -56.1710 -56.1710 -56.1710 -56.1709 -56.1648 -56.1648 -56.1646 -56.1646
   -56.1619 -56.1619 -56.1618 -56.1618 -46.9291 -46.9291 -42.0706 -42.0705
   -41.8028 -41.8027 -41.7743 -41.7742 -20.7578 -20.7578 -20.7524 -20.7524
   -20.7523 -20.7522 -10.6170 -10.5430 -10.3408 -10.3400 -10.3046 -10.2933
   -10.2387 -10.2262 -10.2121 -10.1850 -10.1843 -10.1541  -0.0054   0.0462
     0.2414   0.2779   0.3526   0.4047   0.5097   0.5214   0.6483   0.6529
     0.9116   0.9713   0.9994   1.0721   1.1584   1.2676   1.2972   1.4178
     1.4398   1.5531   1.5727   1.6499   1.7327   1.7630   1.8565   1.9208
     1.9426   2.0549   2.0827   2.1656   2.1826   2.2860   2.2995   2.3441
     2.3795   2.4639   7.2884   7.2899   7.3351   7.3669   7.4352   7.5110
     8.4833   8.6323   8.9366   9.0574   9.3140   9.4648   9.5336   9.7997
     9.8996   9.9711  10.1236  10.1466  10.3726  10.5107  10.5336  10.6618
    10.9004  11.1036

          k = 0.0000 0.0278-0.0765 ( 28944 PWs)   bands (ev):

   -56.2567 -56.2566 -56.2566 -56.2565 -56.2537 -56.2537 -56.2537 -56.2537
   -56.2390 -56.2389 -56.2389 -56.2389 -56.2337 -56.2336 -56.2336 -56.2336
   -56.2313 -56.2313 -56.2312 -56.2312 -56.2177 -56.2177 -56.2177 -56.2177
   -56.2056 -56.2056 -56.2055 -56.2055 -56.2019 -56.2019 -56.2018 -56.2018
   -56.1911 -56.1911 -56.1911 -56.1910 -56.1882 -56.1882 -56.1880 -56.1880
   -56.1726 -56.1726 -56.1726 -56.1726 -56.1716 -56.1716 -56.1716 -56.1716
   -56.1710 -56.1710 -56.1710 -56.1710 -56.1648 -56.1648 -56.1646 -56.1646
   -56.1619 -56.1619 -56.1618 -56.1618 -46.9291 -46.9291 -42.0706 -42.0705
   -41.8028 -41.8027 -41.7743 -41.7742 -20.7578 -20.7578 -20.7524 -20.7524
   -20.7523 -20.7522 -10.5815 -10.5107 -10.3744 -10.3584 -10.3069 -10.2914
   -10.2388 -10.2333 -10.2264 -10.1851 -10.1738 -10.1648   0.0375   0.0944
     0.2236   0.2562   0.3587   0.4282   0.5914   0.6408   0.7335   0.7402
     0.9439   0.9439   1.0106   1.0522   1.0748   1.2045   1.2978   1.3841
     1.4115   1.4676   1.5973   1.6051   1.6727   1.7842   1.9111   1.9199
     1.9317   1.9498   2.0489   2.1516   2.1926   2.2291   2.2434   2.3478
     2.3557   2.4351   7.2648   7.2711   7.2895   7.3947   7.4190   7.5350
     8.6050   8.6450   9.0746   9.2363   9.4468   9.5035   9.6932   9.9346
     9.9975  10.0125  10.0516  10.2092  10.3764  10.4014  10.5846  10.8136
    11.0064  11.1213

          k = 0.0239 0.0000 0.0085 ( 28969 PWs)   bands (ev):

   -56.2566 -56.2566 -56.2566 -56.2566 -56.2537 -56.2537 -56.2537 -56.2537
   -56.2390 -56.2390 -56.2389 -56.2389 -56.2337 -56.2336 -56.2336 -56.2336
   -56.2313 -56.2313 -56.2312 -56.2312 -56.2177 -56.2177 -56.2177 -56.2177
   -56.2056 -56.2056 -56.2055 -56.2055 -56.2019 -56.2019 -56.2018 -56.2018
   -56.1911 -56.1911 -56.1911 -56.1911 -56.1882 -56.1882 -56.1880 -56.1880
   -56.1727 -56.1726 -56.1726 -56.1726 -56.1716 -56.1716 -56.1716 -56.1716
   -56.1710 -56.1710 -56.1710 -56.1709 -56.1648 -56.1648 -56.1646 -56.1646
   -56.1619 -56.1619 -56.1618 -56.1618 -46.9291 -46.9291 -42.0706 -42.0705
   -41.8028 -41.8027 -41.7743 -41.7742 -20.7577 -20.7577 -20.7524 -20.7524
   -20.7524 -20.7521 -10.6951 -10.5221 -10.3852 -10.3033 -10.2928 -10.2685
   -10.2386 -10.2347 -10.2239 -10.1759 -10.1526 -10.1334  -0.1281  -0.0536
     0.2520   0.2534   0.3422   0.3571   0.4533   0.5600   0.7203   0.7326
     0.8620   0.9055   0.9509   0.9540   1.0373   1.0623   1.2979   1.3472
     1.4073   1.4837   1.6258   1.6943   1.7662   1.9136   1.9302   2.0170
     2.0277   2.1190   2.1286   2.2767   2.2773   2.3364   2.3640   2.5034
     2.5352   2.5481   7.1096   7.3687   7.3865   7.4271   7.4476   7.4888
     7.7935   8.8042   8.8258   8.8979   9.0718   9.1362   9.3264   9.4829
     9.6305   9.8971  10.0962  10.0971  10.3673  10.6008  10.6219  10.7941
    11.0441  11.1483

          k = 0.0239 0.0000 0.0340 ( 28947 PWs)   bands (ev):

   -56.2566 -56.2566 -56.2566 -56.2566 -56.2537 -56.2537 -56.2537 -56.2537
   -56.2390 -56.2390 -56.2389 -56.2389 -56.2337 -56.2336 -56.2336 -56.2336
   -56.2313 -56.2313 -56.2312 -56.2312 -56.2177 -56.2177 -56.2177 -56.2176
   -56.2056 -56.2056 -56.2055 -56.2055 -56.2019 -56.2019 -56.2018 -56.2018
   -56.1911 -56.1911 -56.1911 -56.1910 -56.1882 -56.1882 -56.1880 -56.1880
   -56.1727 -56.1726 -56.1726 -56.1726 -56.1716 -56.1716 -56.1716 -56.1716
   -56.1710 -56.1710 -56.1710 -56.1709 -56.1648 -56.1648 -56.1646 -56.1646
   -56.1619 -56.1619 -56.1618 -56.1618 -46.9291 -46.9291 -42.0706 -42.0705
   -41.8028 -41.8027 -41.7743 -41.7742 -20.7578 -20.7577 -20.7524 -20.7524
   -20.7524 -20.7521 -10.6624 -10.4991 -10.3740 -10.3195 -10.3035 -10.2755
   -10.2506 -10.2439 -10.2258 -10.1874 -10.1627 -10.1308   0.0262   0.0354
     0.2723   0.2934   0.3632   0.4053   0.5002   0.5193   0.7832   0.7853
     0.8391   0.8881   0.9793   1.0333   1.0652   1.1066   1.2158   1.2740
     1.3438   1.3681   1.6057   1.6363   1.8142   1.8165   1.9491   2.0096
     2.0520   2.1191   2.1428   2.1795   2.2444   2.2455   2.2547   2.3879
     2.4320   2.5083   7.2094   7.3135   7.3690   7.3871   7.4919   7.5175
     8.1837   8.7555   8.8664   8.9053   9.0182   9.2410   9.5289   9.5663
     9.9953  10.0227  10.0759  10.3143  10.4708  10.7446  10.8513  10.8990
    11.1364  11.1648

          k = 0.0239 0.0000 0.0595 ( 28933 PWs)   bands (ev):

   -56.2566 -56.2566 -56.2566 -56.2566 -56.2537 -56.2537 -56.2537 -56.2536
   -56.2390 -56.2389 -56.2389 -56.2389 -56.2337 -56.2336 -56.2336 -56.2336
   -56.2313 -56.2313 -56.2312 -56.2312 -56.2177 -56.2177 -56.2177 -56.2176
   -56.2056 -56.2056 -56.2055 -56.2055 -56.2019 -56.2019 -56.2018 -56.2018
   -56.1911 -56.1911 -56.1911 -56.1910 -56.1882 -56.1882 -56.1880 -56.1880
   -56.1726 -56.1726 -56.1726 -56.1726 -56.1716 -56.1716 -56.1716 -56.1716
   -56.1710 -56.1710 -56.1709 -56.1709 -56.1648 -56.1648 -56.1646 -56.1646
   -56.1619 -56.1619 -56.1618 -56.1618 -46.9291 -46.9291 -42.0706 -42.0705
   -41.8028 -41.8027 -41.7743 -41.7742 -20.7578 -20.7578 -20.7525 -20.7524
   -20.7524 -20.7521 -10.6080 -10.4588 -10.3551 -10.3548 -10.3231 -10.2784
   -10.2720 -10.2545 -10.2523 -10.1819 -10.1680 -10.1390   0.0617   0.1528
     0.2031   0.2665   0.4483   0.4779   0.5897   0.6119   0.6475   0.7396
     0.7951   0.8656   1.0039   1.0973   1.1033   1.2269   1.2689   1.2938
     1.3486   1.3919   1.5780   1.5827   1.7233   1.8721   1.9488   1.9587
     1.9717   2.0455   2.0596   2.1213   2.1606   2.2649   2.2827   2.3253
     2.3519   2.4903   7.1930   7.2442   7.3063   7.3408   7.4875   7.5347
     8.6395   8.7060   8.9865   9.0225   9.0690   9.6411   9.6671   9.7224
     9.7916  10.0353  10.1312  10.2561  10.3061  10.4636  10.6325  10.8124
    11.1644  11.1991

          k = 0.0239 0.0000-0.0680 ( 28941 PWs)   bands (ev):

   -56.2566 -56.2566 -56.2566 -56.2566 -56.2537 -56.2537 -56.2537 -56.2537
   -56.2390 -56.2390 -56.2389 -56.2389 -56.2337 -56.2336 -56.2336 -56.2336
   -56.2313 -56.2313 -56.2312 -56.2312 -56.2177 -56.2177 -56.2177 -56.2176
   -56.2056 -56.2056 -56.2055 -56.2055 -56.2019 -56.2019 -56.2019 -56.2018
   -56.1911 -56.1911 -56.1911 -56.1910 -56.1882 -56.1882 -56.1880 -56.1880
   -56.1726 -56.1726 -56.1726 -56.1726 -56.1716 -56.1716 -56.1716 -56.1716
   -56.1710 -56.1710 -56.1709 -56.1709 -56.1648 -56.1648 -56.1646 -56.1646
   -56.1619 -56.1619 -56.1618 -56.1618 -46.9291 -46.9291 -42.0706 -42.0705
   -41.8028 -41.8027 -41.7743 -41.7742 -20.7578 -20.7578 -20.7525 -20.7524
   -20.7524 -20.7521 -10.5927 -10.4445 -10.3721 -10.3454 -10.3145 -10.2928
   -10.2870 -10.2590 -10.2446 -10.1736 -10.1685 -10.1526   0.0169   0.0583
     0.2101   0.2519   0.4111   0.4371   0.5165   0.6417   0.6734   0.7026
     0.7347   0.8511   1.0489   1.1110   1.1261   1.2076   1.3774   1.3878
     1.4507   1.5416   1.5948   1.6347   1.7291   1.8506   1.8913   1.9283
     1.9587   1.9940   2.0682   2.1180   2.2267   2.2422   2.3068   2.3687
     2.3777   2.4683   7.1507   7.2242   7.2540   7.3087   7.4377   7.5217
     8.6832   8.7238   9.0366   9.1464   9.1563   9.4747   9.5466   9.7346
     9.8217   9.8934   9.9642  10.0681  10.1356  10.3058  10.5021  10.5371
    11.0970  11.0974

          k = 0.0239 0.0000-0.0425 ( 28925 PWs)   bands (ev):

   -56.2566 -56.2566 -56.2566 -56.2565 -56.2537 -56.2537 -56.2537 -56.2537
   -56.2390 -56.2389 -56.2389 -56.2389 -56.2337 -56.2336 -56.2336 -56.2336
   -56.2313 -56.2313 -56.2312 -56.2312 -56.2177 -56.2177 -56.2177 -56.2176
   -56.2056 -56.2056 -56.2055 -56.2055 -56.2019 -56.2019 -56.2019 -56.2018
   -56.1911 -56.1911 -56.1911 -56.1910 -56.1882 -56.1882 -56.1880 -56.1880
   -56.1726 -56.1726 -56.1726 -56.1726 -56.1716 -56.1716 -56.1716 -56.1716
   -56.1710 -56.1710 -56.1709 -56.1709 -56.1648 -56.1648 -56.1646 -56.1646
   -56.1619 -56.1619 -56.1618 -56.1618 -46.9291 -46.9291 -42.0706 -42.0705
   -41.8028 -41.8027 -41.7743 -41.7742 -20.7578 -20.7578 -20.7525 -20.7524
   -20.7524 -20.7521 -10.6417 -10.4796 -10.3592 -10.3283 -10.2978 -10.2847
   -10.2808 -10.2372 -10.2356 -10.1738 -10.1697 -10.1500  -0.0473  -0.0460
     0.2216   0.2512   0.3233   0.3638   0.4279   0.4603   0.6208   0.6888
     0.7721   0.8190   1.0532   1.1288   1.1539   1.3294   1.3325   1.4716
     1.5352   1.6140   1.6267   1.7146   1.7974   1.8230   1.8498   1.9281
     1.9782   2.0872   2.0885   2.1706   2.2934   2.3213   2.3388   2.4228
     2.4719   2.4777   7.1539   7.2224   7.2484   7.3220   7.4134   7.4851
     8.2479   8.8347   8.8740   8.9809   9.1918   9.3365   9.3807   9.6420
     9.7089   9.7407   9.8379  10.0294  10.1607  10.3116  10.3539  10.4096
    10.8750  11.1279

          k = 0.0239 0.0000-0.0170 ( 28951 PWs)   bands (ev):

   -56.2566 -56.2566 -56.2566 -56.2565 -56.2537 -56.2537 -56.2537 -56.2537
   -56.2390 -56.2390 -56.2389 -56.2389 -56.2337 -56.2336 -56.2336 -56.2336
   -56.2313 -56.2313 -56.2312 -56.2312 -56.2177 -56.2177 -56.2177 -56.2176
   -56.2056 -56.2056 -56.2055 -56.2055 -56.2019 -56.2019 -56.2018 -56.2018
   -56.1911 -56.1911 -56.1911 -56.1910 -56.1882 -56.1882 -56.1880 -56.1880
   -56.1727 -56.1726 -56.1726 -56.1726 -56.1716 -56.1716 -56.1716 -56.1716
   -56.1710 -56.1710 -56.1710 -56.1709 -56.1648 -56.1648 -56.1646 -56.1646
   -56.1619 -56.1619 -56.1618 -56.1618 -46.9291 -46.9291 -42.0706 -42.0705
   -41.8028 -41.8027 -41.7743 -41.7742 -20.7578 -20.7577 -20.7524 -20.7524
   -20.7524 -20.7521 -10.6868 -10.5144 -10.3793 -10.3044 -10.2889 -10.2627
   -10.2564 -10.2402 -10.2260 -10.1686 -10.1577 -10.1422  -0.1376  -0.0838
     0.2132   0.2377   0.2938   0.3152   0.4371   0.4790   0.6340   0.7390
     0.8492   0.8535   0.9583   1.0008   1.1731   1.2196   1.2407   1.4163
     1.5312   1.5501   1.6363   1.7313   1.7932   1.8785   1.9073   1.9873
     2.0402   2.1175   2.1556   2.2464   2.3083   2.3375   2.4347   2.4688
     2.5221   2.5610   7.0777   7.2991   7.3297   7.3993   7.4281   7.4741
     7.8139   8.7050   8.8729   9.0187   9.1258   9.2539   9.4113   9.4755
     9.5122   9.6647   9.8469  10.0610  10.0624  10.3975  10.4900  10.5180
    11.0245  11.1313

          k = 0.0239 0.0278 0.0085 ( 28942 PWs)   bands (ev):

   -56.2566 -56.2566 -56.2566 -56.2566 -56.2537 -56.2537 -56.2537 -56.2537
   -56.2390 -56.2390 -56.2389 -56.2389 -56.2337 -56.2336 -56.2336 -56.2336
   -56.2313 -56.2313 -56.2312 -56.2312 -56.2177 -56.2177 -56.2177 -56.2176
   -56.2056 -56.2056 -56.2055 -56.2055 -56.2019 -56.2019 -56.2018 -56.2018
   -56.1911 -56.1911 -56.1911 -56.1910 -56.1882 -56.1882 -56.1880 -56.1880
   -56.1727 -56.1726 -56.1726 -56.1726 -56.1716 -56.1716 -56.1716 -56.1716
   -56.1710 -56.1710 -56.1710 -56.1709 -56.1648 -56.1648 -56.1646 -56.1646
   -56.1619 -56.1619 -56.1618 -56.1618 -46.9291 -46.9291 -42.0706 -42.0705
   -41.8028 -41.8027 -41.7743 -41.7742 -20.7577 -20.7577 -20.7524 -20.7524
   -20.7523 -20.7522 -10.6650 -10.5869 -10.3354 -10.3024 -10.2990 -10.2908
   -10.2329 -10.2095 -10.1950 -10.1946 -10.1648 -10.1498  -0.0975  -0.0523
     0.1938   0.1959   0.3272   0.3285   0.5217   0.5472   0.6216   0.6266
     0.8432   0.9381   1.0260   1.0360   1.1724   1.2488   1.2935   1.3838
     1.4067   1.5367   1.6646   1.6694   1.7344   1.8517   1.8583   1.9987
     2.0168   2.0878   2.1949   2.2032   2.2882   2.3241   2.3726   2.4426
     2.4694   2.5161   7.2268   7.3771   7.4078   7.4292   7.4327   7.4634
     8.0190   8.5434   8.8604   8.9674   9.1200   9.1368   9.3832   9.5299
     9.6073   9.9207  10.0423  10.1840  10.2537  10.5133  10.6191  10.7245
    11.0507  11.1296

          k = 0.0239 0.0278 0.0340 ( 28932 PWs)   bands (ev):

   -56.2566 -56.2566 -56.2566 -56.2566 -56.2537 -56.2537 -56.2537 -56.2537
   -56.2389 -56.2389 -56.2389 -56.2389 -56.2337 -56.2336 -56.2336 -56.2336
   -56.2313 -56.2313 -56.2312 -56.2312 -56.2177 -56.2177 -56.2177 -56.2176
   -56.2056 -56.2056 -56.2055 -56.2055 -56.2019 -56.2019 -56.2019 -56.2018
   -56.1911 -56.1911 -56.1911 -56.1910 -56.1882 -56.1882 -56.1880 -56.1880
   -56.1726 -56.1726 -56.1726 -56.1726 -56.1716 -56.1716 -56.1716 -56.1716
   -56.1710 -56.1710 -56.1710 -56.1709 -56.1648 -56.1648 -56.1646 -56.1646
   -56.1619 -56.1619 -56.1618 -56.1618 -46.9291 -46.9291 -42.0706 -42.0705
   -41.8028 -41.8027 -41.7743 -41.7742 -20.7578 -20.7577 -20.7524 -20.7524
   -20.7523 -20.7522 -10.6341 -10.5604 -10.3332 -10.3089 -10.3058 -10.2932
   -10.2549 -10.2244 -10.2109 -10.2018 -10.1651 -10.1425   0.0289   0.0289
     0.2556   0.2714   0.3595   0.3714   0.5145   0.5429   0.6239   0.6927
     0.8445   0.8821   1.0799   1.0867   1.1042   1.2423   1.3241   1.3600
     1.4260   1.5213   1.5296   1.6334   1.7275   1.8213   1.8285   1.9558
     2.0387   2.0530   2.1139   2.1760   2.2535   2.2863   2.2893   2.3658
     2.3827   2.4133   7.3136   7.3437   7.3786   7.4160   7.4569   7.4839
     8.2990   8.5662   8.9874   9.0148   9.1156   9.4178   9.5095   9.6230
     9.8477   9.9810  10.1147  10.3597  10.4235  10.5701  10.6895  10.7388
    11.0459  11.0965

          k = 0.0239 0.0278 0.0595 ( 28950 PWs)   bands (ev):

   -56.2566 -56.2566 -56.2566 -56.2566 -56.2537 -56.2537 -56.2537 -56.2537
   -56.2390 -56.2390 -56.2389 -56.2389 -56.2337 -56.2336 -56.2336 -56.2336
   -56.2313 -56.2313 -56.2312 -56.2312 -56.2177 -56.2177 -56.2177 -56.2177
   -56.2056 -56.2056 -56.2055 -56.2055 -56.2019 -56.2019 -56.2019 -56.2018
   -56.1911 -56.1911 -56.1911 -56.1910 -56.1882 -56.1882 -56.1880 -56.1880
   -56.1727 -56.1726 -56.1726 -56.1726 -56.1716 -56.1716 -56.1716 -56.1716
   -56.1710 -56.1710 -56.1710 -56.1710 -56.1648 -56.1648 -56.1646 -56.1646
   -56.1619 -56.1619 -56.1618 -56.1618 -46.9291 -46.9291 -42.0706 -42.0705
   -41.8028 -41.8027 -41.7743 -41.7742 -20.7578 -20.7578 -20.7524 -20.7524
   -20.7523 -20.7522 -10.5815 -10.5136 -10.3514 -10.3446 -10.3115 -10.2962
   -10.2618 -10.2362 -10.2275 -10.2057 -10.1669 -10.1488   0.0429   0.0704
     0.2378   0.2798   0.4254   0.4492   0.5802   0.6188   0.6734   0.7070
     0.8314   0.8687   1.0079   1.0662   1.1507   1.2550   1.3171   1.3897
     1.4611   1.5489   1.5791   1.6454   1.6454   1.7508   1.8028   1.9237
     1.9866   2.0269   2.0711   2.1125   2.1703   2.2478   2.2526   2.3297
     2.3367   2.4101   7.2514   7.3056   7.3154   7.4069   7.4205   7.5091
     8.5891   8.5915   9.1286   9.1433   9.2587   9.5690   9.7652   9.8401
     9.8714   9.9843  10.0950  10.1920  10.2872  10.3913  10.4919  10.7999
    11.1327  11.2226

          k = 0.0239 0.0278-0.0680 ( 28941 PWs)   bands (ev):

   -56.2566 -56.2566 -56.2566 -56.2566 -56.2537 -56.2537 -56.2537 -56.2537
   -56.2390 -56.2389 -56.2389 -56.2389 -56.2337 -56.2336 -56.2336 -56.2336
   -56.2313 -56.2313 -56.2312 -56.2312 -56.2177 -56.2177 -56.2177 -56.2176
   -56.2056 -56.2056 -56.2055 -56.2055 -56.2019 -56.2019 -56.2018 -56.2018
   -56.1911 -56.1911 -56.1911 -56.1910 -56.1882 -56.1882 -56.1880 -56.1880
   -56.1726 -56.1726 -56.1726 -56.1726 -56.1716 -56.1716 -56.1716 -56.1716
   -56.1710 -56.1710 -56.1710 -56.1709 -56.1648 -56.1648 -56.1646 -56.1646
   -56.1619 -56.1619 -56.1618 -56.1618 -46.9291 -46.9291 -42.0706 -42.0705
   -41.8028 -41.8027 -41.7743 -41.7742 -20.7578 -20.7578 -20.7525 -20.7524
   -20.7523 -20.7522 -10.5658 -10.4973 -10.3683 -10.3549 -10.3132 -10.2975
   -10.2495 -10.2366 -10.2351 -10.1867 -10.1767 -10.1656  -0.0215  -0.0146
     0.2567   0.2966   0.3618   0.3904   0.5854   0.6107   0.6332   0.7118
     0.8352   0.8403   1.0996   1.1224   1.1830   1.3127   1.3188   1.3967
     1.4964   1.5530   1.5819   1.6235   1.7341   1.8219   1.8874   1.9065
     1.9696   2.0395   2.0397   2.1134   2.1207   2.2349   2.2553   2.3124
     2.4006   2.4512   7.1953   7.2588   7.2861   7.3742   7.3745   7.4911
     8.6544   8.6944   9.0399   9.1937   9.3622   9.4154   9.6154   9.6694
     9.7814   9.8129   9.9372  10.2870  10.3743  10.5105  10.5142  10.7853
    10.9202  11.0251

          k = 0.0239 0.0278-0.0425 ( 28957 PWs)   bands (ev):

   -56.2566 -56.2566 -56.2566 -56.2565 -56.2537 -56.2537 -56.2537 -56.2537
   -56.2390 -56.2390 -56.2389 -56.2389 -56.2337 -56.2337 -56.2336 -56.2336
   -56.2313 -56.2313 -56.2312 -56.2312 -56.2177 -56.2177 -56.2177 -56.2176
   -56.2056 -56.2056 -56.2055 -56.2055 -56.2019 -56.2019 -56.2019 -56.2018
   -56.1911 -56.1911 -56.1911 -56.1910 -56.1882 -56.1882 -56.1880 -56.1880
   -56.1726 -56.1726 -56.1726 -56.1726 -56.1716 -56.1716 -56.1716 -56.1716
   -56.1710 -56.1710 -56.1710 -56.1710 -56.1648 -56.1648 -56.1646 -56.1646
   -56.1619 -56.1619 -56.1618 -56.1618 -46.9291 -46.9291 -42.0706 -42.0705
   -41.8028 -41.8027 -41.7743 -41.7742 -20.7578 -20.7578 -20.7524 -20.7524
   -20.7523 -20.7522 -10.6130 -10.5392 -10.3388 -10.3323 -10.3008 -10.2918
   -10.2482 -10.2232 -10.2116 -10.1847 -10.1843 -10.1702  -0.0826  -0.0716
     0.2393   0.2454   0.3309   0.3524   0.4550   0.4573   0.5396   0.5719
     0.8682   0.9553   1.1069   1.2020   1.2605   1.3003   1.3667   1.4552
     1.5511   1.5749   1.6266   1.7149   1.7628   1.8054   1.8788   1.9046
     1.9337   2.0609   2.0937   2.1340   2.2361   2.2971   2.3556   2.3831
     2.4545   2.4895   7.2229   7.2569   7.2675   7.3485   7.3685   7.4366
     8.4517   8.7346   8.8934   8.9173   9.2303   9.2466   9.5415   9.5915
     9.7452   9.7815   9.9717  10.0900  10.2060  10.3247  10.3738  10.4660
    10.9789  10.9807

          k = 0.0239 0.0278-0.0170 ( 28950 PWs)   bands (ev):

   -56.2566 -56.2566 -56.2566 -56.2565 -56.2537 -56.2537 -56.2537 -56.2537
   -56.2390 -56.2390 -56.2389 -56.2389 -56.2337 -56.2336 -56.2336 -56.2336
   -56.2313 -56.2313 -56.2312 -56.2312 -56.2177 -56.2177 -56.2177 -56.2176
   -56.2056 -56.2056 -56.2055 -56.2055 -56.2019 -56.2019 -56.2019 -56.2018
   -56.1911 -56.1911 -56.1911 -56.1910 -56.1882 -56.1882 -56.1880 -56.1880
   -56.1726 -56.1726 -56.1726 -56.1726 -56.1716 -56.1716 -56.1716 -56.1716
   -56.1711 -56.1710 -56.1710 -56.1709 -56.1648 -56.1648 -56.1646 -56.1646
   -56.1619 -56.1619 -56.1618 -56.1618 -46.9291 -46.9291 -42.0706 -42.0705
   -41.8028 -41.8027 -41.7743 -41.7742 -20.7577 -20.7577 -20.7524 -20.7524
   -20.7523 -20.7522 -10.6567 -10.5785 -10.3379 -10.3128 -10.2936 -10.2809
   -10.2316 -10.2108 -10.2053 -10.1852 -10.1713 -10.1630  -0.1250  -0.0908
     0.1786   0.1824   0.2936   0.3179   0.4735   0.4952   0.5455   0.5740
     0.9018   0.9196   1.0801   1.1359   1.2280   1.2958   1.3037   1.3858
     1.5521   1.5671   1.6806   1.6818   1.7741   1.8434   1.8736   1.9743
     1.9754   2.0745   2.1412   2.1457   2.3297   2.3769   2.4013   2.4734
     2.5092   2.5137   7.1907   7.3166   7.3333   7.3756   7.4111   7.4389
     8.0832   8.5938   8.8667   8.8712   9.1045   9.1754   9.5581   9.5859
     9.6004   9.7783   9.8760  10.0231  10.1547  10.3143  10.3624  10.4213
    11.0352  11.0578

          k = 0.0478 0.0000 0.0170 ( 28912 PWs)   bands (ev):

   -56.2566 -56.2566 -56.2566 -56.2565 -56.2537 -56.2537 -56.2537 -56.2536
   -56.2390 -56.2389 -56.2389 -56.2389 -56.2337 -56.2336 -56.2336 -56.2336
   -56.2313 -56.2312 -56.2312 -56.2312 -56.2177 -56.2177 -56.2176 -56.2176
   -56.2056 -56.2056 -56.2055 -56.2055 -56.2019 -56.2019 -56.2018 -56.2018
   -56.1911 -56.1911 -56.1910 -56.1910 -56.1882 -56.1882 -56.1880 -56.1880
   -56.1726 -56.1726 -56.1726 -56.1726 -56.1716 -56.1716 -56.1716 -56.1716
   -56.1710 -56.1710 -56.1710 -56.1709 -56.1648 -56.1648 -56.1646 -56.1646
   -56.1619 -56.1619 -56.1618 -56.1618 -46.9291 -46.9291 -42.0706 -42.0705
   -41.8028 -41.8027 -41.7743 -41.7742 -20.7577 -20.7577 -20.7525 -20.7524
   -20.7523 -20.7522 -10.6253 -10.4893 -10.3647 -10.3558 -10.3051 -10.2832
   -10.2607 -10.2514 -10.2090 -10.1923 -10.1548 -10.1479  -0.0405   0.1247
     0.3102   0.3329   0.3735   0.4179   0.4545   0.5782   0.6918   0.7120
     0.7753   0.8676   0.8863   0.9704   1.0652   1.1955   1.2747   1.4349
     1.4562   1.5549   1.6176   1.6350   1.6935   1.9025   1.9555   1.9679
     1.9725   1.9981   2.1118   2.1152   2.1748   2.2065   2.3429   2.4341
     2.4370   2.4935   7.2140   7.3066   7.3561   7.3845   7.4020   7.4414
     8.3860   8.8041   8.9350   8.9969   9.0424   9.1662   9.5399   9.7926
     9.9317  10.0649  10.1286  10.2320  10.4202  10.5615  10.5756  10.8678
    10.9233  11.1776

          k = 0.0478 0.0000 0.0425 ( 28955 PWs)   bands (ev):

   -56.2566 -56.2566 -56.2566 -56.2566 -56.2537 -56.2537 -56.2537 -56.2537
   -56.2390 -56.2390 -56.2389 -56.2389 -56.2337 -56.2336 -56.2336 -56.2336
   -56.2313 -56.2313 -56.2312 -56.2312 -56.2177 -56.2177 -56.2177 -56.2177
   -56.2056 -56.2056 -56.2055 -56.2055 -56.2019 -56.2019 -56.2018 -56.2018
   -56.1911 -56.1911 -56.1911 -56.1910 -56.1882 -56.1882 -56.1880 -56.1880
   -56.1727 -56.1726 -56.1726 -56.1726 -56.1716 -56.1716 -56.1716 -56.1716
   -56.1710 -56.1710 -56.1710 -56.1709 -56.1648 -56.1648 -56.1646 -56.1646
   -56.1619 -56.1619 -56.1618 -56.1618 -46.9291 -46.9291 -42.0706 -42.0705
   -41.8028 -41.8027 -41.7743 -41.7742 -20.7578 -20.7577 -20.7525 -20.7525
   -20.7523 -20.7522 -10.5868 -10.4750 -10.3722 -10.3425 -10.3190 -10.2892
   -10.2797 -10.2521 -10.2290 -10.1977 -10.1557 -10.1472   0.0740   0.1039
     0.2939   0.2971   0.4697   0.4837   0.5234   0.5680   0.6703   0.7494
     0.7498   0.8785   1.0074   1.0433   1.0790   1.0981   1.2026   1.3713
     1.4012   1.5168   1.5362   1.7035   1.7520   1.8913   1.9056   1.9542
     1.9727   2.0113   2.0650   2.1226   2.1265   2.2459   2.2908   2.3221
     2.3790   2.4679   7.2062   7.2542   7.3807   7.3874   7.4212   7.4489
     8.6872   8.7297   8.9027   8.9963   9.0904   9.4326   9.5049   9.8844
    10.0211  10.0575  10.1196  10.2481  10.2870  10.5325  10.5826  10.7989
    10.9557  11.3072

          k = 0.0478 0.0000 0.0680 ( 28920 PWs)   bands (ev):

   -56.2566 -56.2566 -56.2566 -56.2566 -56.2537 -56.2537 -56.2537 -56.2536
   -56.2390 -56.2389 -56.2389 -56.2389 -56.2337 -56.2336 -56.2336 -56.2336
   -56.2313 -56.2313 -56.2312 -56.2312 -56.2177 -56.2177 -56.2177 -56.2176
   -56.2056 -56.2055 -56.2055 -56.2055 -56.2019 -56.2018 -56.2018 -56.2018
   -56.1911 -56.1911 -56.1911 -56.1910 -56.1882 -56.1882 -56.1880 -56.1880
   -56.1727 -56.1726 -56.1726 -56.1726 -56.1716 -56.1716 -56.1716 -56.1716
   -56.1710 -56.1710 -56.1709 -56.1709 -56.1648 -56.1648 -56.1646 -56.1646
   -56.1619 -56.1619 -56.1618 -56.1618 -46.9291 -46.9291 -42.0706 -42.0705
   -41.8028 -41.8027 -41.7743 -41.7742 -20.7578 -20.7578 -20.7525 -20.7525
   -20.7523 -20.7522 -10.5387 -10.4471 -10.3696 -10.3588 -10.3185 -10.2984
   -10.2788 -10.2739 -10.2598 -10.1874 -10.1612 -10.1595  -0.0081   0.0695
     0.2353   0.2605   0.4244   0.4476   0.5591   0.5817   0.6697   0.7203
     0.7274   0.8838   0.9081   1.0405   1.1402   1.3281   1.3423   1.4206
     1.4234   1.5427   1.6500   1.7892   1.8245   1.8513   1.9120   1.9538
     1.9938   2.0062   2.0803   2.1066   2.1305   2.1908   2.1971   2.2356
     2.3897   2.4973   7.1162   7.1891   7.3352   7.3586   7.3879   7.4197
     8.7057   8.8821   9.0019   9.0129   9.2957   9.3843   9.5412   9.6245
     9.6631   9.7826  10.0365  10.1001  10.1869  10.2600  10.4034  10.4485
    11.0935  11.2274

          k = 0.0478 0.0000-0.0595 ( 28951 PWs)   bands (ev):

   -56.2566 -56.2566 -56.2566 -56.2566 -56.2537 -56.2537 -56.2537 -56.2537
   -56.2390 -56.2390 -56.2389 -56.2389 -56.2337 -56.2337 -56.2336 -56.2336
   -56.2313 -56.2313 -56.2312 -56.2312 -56.2177 -56.2177 -56.2177 -56.2176
   -56.2056 -56.2056 -56.2055 -56.2055 -56.2019 -56.2019 -56.2018 -56.2018
   -56.1911 -56.1911 -56.1911 -56.1910 -56.1882 -56.1882 -56.1880 -56.1880
   -56.1726 -56.1726 -56.1726 -56.1726 -56.1716 -56.1716 -56.1716 -56.1716
   -56.1710 -56.1710 -56.1709 -56.1709 -56.1648 -56.1648 -56.1646 -56.1646
   -56.1619 -56.1619 -56.1618 -56.1618 -46.9291 -46.9291 -42.0706 -42.0705
   -41.8028 -41.8027 -41.7743 -41.7742 -20.7578 -20.7578 -20.7525 -20.7525
   -20.7523 -20.7522 -10.5459 -10.4254 -10.3754 -10.3546 -10.3108 -10.3036
   -10.2928 -10.2577 -10.2567 -10.1868 -10.1731 -10.1678  -0.0519  -0.0338
     0.1860   0.2271   0.3603   0.3762   0.4562   0.4735   0.5483   0.6418
     0.7489   0.9444   1.0999   1.1451   1.2452   1.3737   1.3838   1.5085
     1.5222   1.6890   1.7409   1.7807   1.7922   1.8249   1.8335   1.9133
     1.9306   2.0398   2.1063   2.1778   2.2002   2.2003   2.2661   2.3225
     2.4489   2.4771   7.0977   7.1865   7.2715   7.2716   7.3015   7.3820
     8.6296   8.7764   8.9690   9.0816   9.2096   9.2780   9.3988   9.4262
     9.5971   9.7496   9.8330   9.9574   9.9897  10.0736  10.2832  10.4815
    11.0263  11.2206

          k = 0.0478 0.0000-0.0340 ( 28954 PWs)   bands (ev):

   -56.2566 -56.2566 -56.2566 -56.2566 -56.2537 -56.2537 -56.2537 -56.2537
   -56.2389 -56.2389 -56.2389 -56.2389 -56.2337 -56.2336 -56.2336 -56.2336
   -56.2313 -56.2313 -56.2312 -56.2312 -56.2177 -56.2177 -56.2177 -56.2177
   -56.2056 -56.2056 -56.2055 -56.2055 -56.2019 -56.2019 -56.2018 -56.2018
   -56.1911 -56.1911 -56.1911 -56.1910 -56.1882 -56.1882 -56.1880 -56.1880
   -56.1726 -56.1726 -56.1726 -56.1726 -56.1716 -56.1716 -56.1716 -56.1716
   -56.1710 -56.1710 -56.1710 -56.1709 -56.1648 -56.1648 -56.1646 -56.1646
   -56.1619 -56.1619 -56.1618 -56.1618 -46.9291 -46.9291 -42.0706 -42.0705
   -41.8028 -41.8027 -41.7743 -41.7742 -20.7578 -20.7578 -20.7525 -20.7525
   -20.7523 -20.7522 -10.5961 -10.4517 -10.3563 -10.3302 -10.3245 -10.2938
   -10.2833 -10.2486 -10.2285 -10.1985 -10.1669 -10.1657  -0.1296  -0.0006
     0.1701   0.2649   0.3512   0.3766   0.3929   0.4208   0.4822   0.5301
     0.6624   0.9633   1.1628   1.1850   1.3466   1.3693   1.4096   1.4676
     1.5698   1.7040   1.7279   1.7732   1.8199   1.8256   1.8644   1.8747
     1.9619   2.0173   2.0506   2.1420   2.2497   2.3504   2.3633   2.4069
     2.4317   2.5114   7.1461   7.1739   7.2248   7.2931   7.2950   7.3718
     8.3678   8.7693   8.8568   9.1213   9.1480   9.2674   9.3780   9.5886
     9.6289   9.6726   9.7832   9.9219   9.9928  10.0248  10.1919  10.2266
    10.8611  11.2976

          k = 0.0478 0.0000-0.0085 ( 28915 PWs)   bands (ev):

   -56.2566 -56.2566 -56.2566 -56.2565 -56.2537 -56.2537 -56.2537 -56.2537
   -56.2389 -56.2389 -56.2389 -56.2389 -56.2337 -56.2336 -56.2336 -56.2336
   -56.2313 -56.2313 -56.2312 -56.2312 -56.2177 -56.2177 -56.2177 -56.2176
   -56.2056 -56.2056 -56.2055 -56.2055 -56.2019 -56.2018 -56.2018 -56.2018
   -56.1911 -56.1911 -56.1911 -56.1910 -56.1882 -56.1882 -56.1880 -56.1880
   -56.1726 -56.1726 -56.1726 -56.1726 -56.1716 -56.1716 -56.1716 -56.1716
   -56.1710 -56.1710 -56.1710 -56.1709 -56.1648 -56.1648 -56.1646 -56.1646
   -56.1619 -56.1619 -56.1618 -56.1618 -46.9291 -46.9291 -42.0706 -42.0705
   -41.8028 -41.8027 -41.7743 -41.7742 -20.7577 -20.7577 -20.7525 -20.7525
   -20.7523 -20.7522 -10.6290 -10.4813 -10.3592 -10.3404 -10.3105 -10.2771
   -10.2705 -10.2568 -10.2101 -10.1886 -10.1578 -10.1574  -0.1321   0.0724
     0.2438   0.2929   0.3063   0.3893   0.4366   0.4744   0.5543   0.6141
     0.6911   0.8901   0.9092   1.1558   1.2158   1.3423   1.3682   1.4557
     1.5466   1.6131   1.6881   1.7118   1.7789   1.8543   1.8974   1.9389
     1.9698   2.0213   2.0997   2.1967   2.2415   2.2859   2.3508   2.4040
     2.4792   2.5034   7.1567   7.2648   7.2684   7.3523   7.3644   7.4061
     8.2450   8.8252   9.0146   9.0827   9.1181   9.2021   9.2816   9.5878
     9.6962   9.8718   9.9677  10.0306  10.0912  10.2814  10.3566  10.3876
    10.8583  11.1434

          k = 0.0478 0.0278 0.0170 ( 28957 PWs)   bands (ev):

   -56.2566 -56.2566 -56.2566 -56.2566 -56.2537 -56.2537 -56.2537 -56.2537
   -56.2390 -56.2390 -56.2389 -56.2389 -56.2337 -56.2337 -56.2336 -56.2336
   -56.2313 -56.2313 -56.2312 -56.2312 -56.2177 -56.2177 -56.2177 -56.2176
   -56.2056 -56.2056 -56.2055 -56.2055 -56.2019 -56.2019 -56.2019 -56.2018
   -56.1911 -56.1911 -56.1911 -56.1910 -56.1882 -56.1882 -56.1880 -56.1880
   -56.1726 -56.1726 -56.1726 -56.1726 -56.1716 -56.1716 -56.1716 -56.1716
   -56.1710 -56.1710 -56.1710 -56.1709 -56.1648 -56.1648 -56.1646 -56.1646
   -56.1619 -56.1619 -56.1618 -56.1618 -46.9291 -46.9291 -42.0706 -42.0705
   -41.8028 -41.8027 -41.7743 -41.7742 -20.7577 -20.7577 -20.7525 -20.7525
   -20.7523 -20.7522 -10.6006 -10.5377 -10.3575 -10.3299 -10.3138 -10.2898
   -10.2537 -10.2354 -10.2101 -10.2001 -10.1594 -10.1514  -0.0248   0.0548
     0.2594   0.2920   0.3887   0.3910   0.5257   0.5663   0.6251   0.6409
     0.8120   0.9626   1.0287   1.0293   1.1861   1.1933   1.3128   1.4240
     1.5105   1.5117   1.5936   1.6917   1.7234   1.7967   1.8467   1.8534
     1.9498   2.0055   2.1110   2.1157   2.2489   2.2669   2.3210   2.3407
     2.4089   2.4749   7.2580   7.3196   7.3560   7.3923   7.4056   7.4616
     8.4687   8.6184   9.0041   9.1698   9.1812   9.3230   9.5386   9.7814
     9.8885  10.0961  10.1224  10.1960  10.2435  10.4598  10.5723  10.6717
    11.0005  11.1607

          k = 0.0478 0.0278 0.0425 ( 28941 PWs)   bands (ev):

   -56.2566 -56.2566 -56.2566 -56.2566 -56.2537 -56.2537 -56.2537 -56.2536
   -56.2389 -56.2389 -56.2389 -56.2389 -56.2337 -56.2336 -56.2336 -56.2336
   -56.2313 -56.2313 -56.2312 -56.2312 -56.2177 -56.2177 -56.2177 -56.2177
   -56.2056 -56.2056 -56.2055 -56.2055 -56.2019 -56.2019 -56.2019 -56.2018
   -56.1911 -56.1911 -56.1911 -56.1910 -56.1882 -56.1882 -56.1880 -56.1880
   -56.1726 -56.1726 -56.1726 -56.1726 -56.1716 -56.1716 -56.1716 -56.1716
   -56.1710 -56.1710 -56.1710 -56.1710 -56.1648 -56.1648 -56.1646 -56.1646
   -56.1619 -56.1619 -56.1618 -56.1618 -46.9291 -46.9291 -42.0706 -42.0705
   -41.8028 -41.8027 -41.7743 -41.7742 -20.7577 -20.7577 -20.7525 -20.7525
   -20.7523 -20.7522 -10.5651 -10.5117 -10.3714 -10.3417 -10.3012 -10.2997
   -10.2687 -10.2481 -10.2184 -10.2160 -10.1557 -10.1484   0.0367   0.0431
     0.2960   0.2995   0.4290   0.4319   0.6073   0.6155   0.6612   0.7414
     0.8264   0.8364   1.0133   1.0376   1.0997   1.1566   1.3378   1.4168
     1.4803   1.5669   1.5980   1.6658   1.6858   1.7615   1.8362   1.8543
     1.9240   1.9986   2.0756   2.1505   2.1878   2.2530   2.2632   2.2927
     2.3962   2.3991   7.2310   7.3147   7.3173   7.3992   7.4393   7.4801
     8.5966   8.6135   9.0916   9.1000   9.3416   9.5625   9.6402   9.8237
     9.9144   9.9766  10.0948  10.2353  10.3181  10.3285  10.5795  10.7992
    11.0744  11.2166

          k = 0.0478 0.0278 0.0680 ( 28955 PWs)   bands (ev):

   -56.2566 -56.2566 -56.2566 -56.2566 -56.2537 -56.2537 -56.2537 -56.2537
   -56.2390 -56.2390 -56.2389 -56.2389 -56.2337 -56.2336 -56.2336 -56.2336
   -56.2313 -56.2313 -56.2312 -56.2312 -56.2177 -56.2177 -56.2177 -56.2177
   -56.2056 -56.2056 -56.2055 -56.2055 -56.2019 -56.2019 -56.2018 -56.2018
   -56.1911 -56.1911 -56.1911 -56.1910 -56.1882 -56.1882 -56.1880 -56.1880
   -56.1727 -56.1726 -56.1726 -56.1726 -56.1716 -56.1716 -56.1716 -56.1716
   -56.1710 -56.1710 -56.1710 -56.1709 -56.1648 -56.1648 -56.1646 -56.1646
   -56.1619 -56.1619 -56.1618 -56.1618 -46.9291 -46.9291 -42.0706 -42.0705
   -41.8028 -41.8027 -41.7743 -41.7742 -20.7578 -20.7578 -20.7525 -20.7525
   -20.7523 -20.7522 -10.5187 -10.4722 -10.3753 -10.3606 -10.3233 -10.3174
   -10.2631 -10.2519 -10.2378 -10.2104 -10.1614 -10.1596  -0.0662  -0.0441
     0.2895   0.3453   0.3904   0.4300   0.5590   0.6104   0.7359   0.7505
     0.8142   0.8992   0.9314   0.9599   1.0984   1.2749   1.4617   1.4824
     1.5024   1.6304   1.6623   1.7313   1.7343   1.7665   1.8551   1.8932
     1.9673   2.0075   2.0364   2.0411   2.1418   2.2241   2.2787   2.3057
     2.3660   2.4139   7.1336   7.2383   7.2774   7.3812   7.4125   7.4460
     8.6948   8.7664   8.9961   9.0134   9.3949   9.4313   9.5108   9.5242
     9.8381   9.8955   9.9584  10.1707  10.3683  10.3756  10.6060  10.8260
    11.0555  11.1963

          k = 0.0478 0.0278-0.0595 ( 28961 PWs)   bands (ev):

   -56.2566 -56.2566 -56.2566 -56.2566 -56.2537 -56.2537 -56.2537 -56.2537
   -56.2390 -56.2390 -56.2389 -56.2389 -56.2337 -56.2337 -56.2336 -56.2336
   -56.2313 -56.2313 -56.2312 -56.2312 -56.2177 -56.2177 -56.2177 -56.2176
   -56.2056 -56.2056 -56.2055 -56.2055 -56.2019 -56.2019 -56.2019 -56.2018
   -56.1911 -56.1911 -56.1911 -56.1910 -56.1882 -56.1882 -56.1880 -56.1880
   -56.1727 -56.1726 -56.1726 -56.1726 -56.1716 -56.1716 -56.1716 -56.1716
   -56.1710 -56.1710 -56.1710 -56.1709 -56.1648 -56.1648 -56.1646 -56.1646
   -56.1619 -56.1619 -56.1618 -56.1618 -46.9291 -46.9291 -42.0706 -42.0705
   -41.8028 -41.8027 -41.7743 -41.7742 -20.7578 -20.7578 -20.7525 -20.7525
   -20.7523 -20.7522 -10.5228 -10.4655 -10.3701 -10.3576 -10.3231 -10.3195
   -10.2586 -10.2447 -10.2351 -10.2011 -10.1779 -10.1747  -0.1390  -0.1258
     0.2694   0.2792   0.3399   0.3584   0.4896   0.4899   0.6240   0.6769
     0.8472   0.9545   1.1130   1.1229   1.1930   1.2806   1.4874   1.4965
     1.5507   1.6492   1.6798   1.7057   1.7568   1.7888   1.8801   1.9368
     1.9782   2.0265   2.1241   2.1367   2.1791   2.2380   2.3261   2.3332
     2.4054   2.4080   7.0785   7.1525   7.2810   7.3280   7.3540   7.3815
     8.7074   8.7341   8.9211   8.9782   9.1817   9.2122   9.3613   9.3799
     9.6007   9.7341  10.0874  10.1791  10.3911  10.4710  10.5873  10.6056
    10.9283  11.0623

          k = 0.0478 0.0278-0.0340 ( 28953 PWs)   bands (ev):

   -56.2566 -56.2566 -56.2566 -56.2566 -56.2537 -56.2537 -56.2537 -56.2537
   -56.2390 -56.2390 -56.2389 -56.2389 -56.2337 -56.2336 -56.2336 -56.2336
   -56.2313 -56.2313 -56.2312 -56.2312 -56.2177 -56.2177 -56.2177 -56.2176
   -56.2056 -56.2056 -56.2055 -56.2055 -56.2019 -56.2019 -56.2019 -56.2018
   -56.1911 -56.1911 -56.1911 -56.1910 -56.1882 -56.1882 -56.1880 -56.1880
   -56.1726 -56.1726 -56.1726 -56.1726 -56.1716 -56.1716 -56.1716 -56.1716
   -56.1710 -56.1710 -56.1710 -56.1709 -56.1648 -56.1648 -56.1646 -56.1646
   -56.1619 -56.1619 -56.1618 -56.1618 -46.9291 -46.9291 -42.0706 -42.0705
   -41.8028 -41.8027 -41.7743 -41.7742 -20.7578 -20.7578 -20.7525 -20.7525
   -20.7523 -20.7522 -10.5704 -10.5046 -10.3449 -10.3323 -10.3168 -10.3001
   -10.2666 -10.2287 -10.2128 -10.2109 -10.1789 -10.1769  -0.1648  -0.1059
     0.2304   0.2683   0.3302   0.3366   0.4292   0.4471   0.5034   0.5051
     0.9267   1.0254   1.1229   1.1478   1.3126   1.4208   1.4440   1.4821
     1.5699   1.6042   1.6281   1.6767   1.7468   1.7576   1.9441   1.9518
     1.9950   2.0364   2.0876   2.1131   2.3166   2.3428   2.3603   2.3877
     2.4013   2.4459   7.1314   7.1561   7.2390   7.3363   7.3445   7.3611
     8.5328   8.7487   8.8060   8.9765   9.1331   9.1692   9.3653   9.4881
     9.5725   9.6158  10.0790  10.1756  10.2524  10.3055  10.4063  10.4278
    10.8698  11.1342

          k = 0.0478 0.0278-0.0085 ( 28942 PWs)   bands (ev):

   -56.2566 -56.2566 -56.2566 -56.2565 -56.2537 -56.2537 -56.2537 -56.2537
   -56.2390 -56.2389 -56.2389 -56.2389 -56.2337 -56.2336 -56.2336 -56.2336
   -56.2313 -56.2313 -56.2312 -56.2312 -56.2177 -56.2177 -56.2177 -56.2176
   -56.2056 -56.2056 -56.2055 -56.2055 -56.2019 -56.2019 -56.2018 -56.2018
   -56.1911 -56.1911 -56.1911 -56.1910 -56.1882 -56.1882 -56.1880 -56.1880
   -56.1726 -56.1726 -56.1726 -56.1726 -56.1716 -56.1716 -56.1716 -56.1716
   -56.1710 -56.1710 -56.1710 -56.1709 -56.1648 -56.1648 -56.1646 -56.1646
   -56.1619 -56.1619 -56.1618 -56.1618 -46.9291 -46.9291 -42.0706 -42.0705
   -41.8028 -41.8027 -41.7743 -41.7742 -20.7577 -20.7577 -20.7525 -20.7525
   -20.7523 -20.7522 -10.6027 -10.5352 -10.3394 -10.3226 -10.3199 -10.2936
   -10.2598 -10.2256 -10.2073 -10.1998 -10.1682 -10.1644  -0.1207  -0.0259
     0.2269   0.2716   0.3488   0.3821   0.4315   0.4639   0.5194   0.5239
     0.9020   1.0066   1.0822   1.0970   1.2154   1.3808   1.3810   1.4670
     1.5666   1.5883   1.6146   1.6646   1.7325   1.7672   1.9126   1.9188
     2.0167   2.0285   2.0925   2.1250   2.2468   2.2839   2.3591   2.4006
     2.4446   2.4944   7.2136   7.2462   7.2877   7.3641   7.3852   7.4000
     8.4285   8.7424   8.9322   8.9553   9.0507   9.1554   9.6049   9.6908
     9.7483   9.8804   9.9274  10.1042  10.1379  10.3395  10.3658  10.4962
    10.9194  11.0608

          k =-0.0718 0.0000-0.0255 ( 28928 PWs)   bands (ev):

   -56.2566 -56.2566 -56.2566 -56.2565 -56.2537 -56.2537 -56.2537 -56.2537
   -56.2390 -56.2390 -56.2389 -56.2389 -56.2337 -56.2336 -56.2336 -56.2336
   -56.2313 -56.2313 -56.2312 -56.2312 -56.2177 -56.2177 -56.2176 -56.2176
   -56.2056 -56.2056 -56.2055 -56.2055 -56.2019 -56.2019 -56.2018 -56.2018
   -56.1911 -56.1911 -56.1911 -56.1910 -56.1882 -56.1882 -56.1880 -56.1880
   -56.1726 -56.1726 -56.1726 -56.1726 -56.1716 -56.1716 -56.1716 -56.1716
   -56.1710 -56.1710 -56.1709 -56.1709 -56.1648 -56.1648 -56.1646 -56.1646
   -56.1619 -56.1619 -56.1618 -56.1618 -46.9291 -46.9291 -42.0706 -42.0705
   -41.8028 -41.8027 -41.7743 -41.7742 -20.7577 -20.7577 -20.7525 -20.7525
   -20.7523 -20.7523 -10.5338 -10.5338 -10.3467 -10.3467 -10.3227 -10.3227
   -10.2691 -10.2691 -10.1910 -10.1910 -10.1598 -10.1598   0.0681   0.0681
     0.3822   0.3822   0.4283   0.4283   0.5119   0.5119   0.7355   0.7355
     0.8399   0.8399   1.0059   1.0059   1.1225   1.1225   1.1491   1.1491
     1.5912   1.5912   1.6761   1.6761   1.7187   1.7187   1.8380   1.8380
     2.0459   2.0459   2.0628   2.0628   2.1989   2.1989   2.3656   2.3656
     2.4221   2.4221   7.2767   7.2767   7.3153   7.3153   7.4300   7.4300
     8.7590   8.7590   8.9100   8.9101   9.2907   9.2907   9.8106   9.8106
    10.0738  10.0738  10.1647  10.1648  10.3833  10.3833  10.7416  10.7416
    11.1822  11.1823

          k =-0.0718 0.0000-0.0000 ( 28941 PWs)   bands (ev):

   -56.2566 -56.2566 -56.2566 -56.2565 -56.2537 -56.2537 -56.2537 -56.2537
   -56.2390 -56.2389 -56.2389 -56.2389 -56.2337 -56.2336 -56.2336 -56.2336
   -56.2313 -56.2313 -56.2312 -56.2312 -56.2177 -56.2177 -56.2177 -56.2176
   -56.2056 -56.2056 -56.2055 -56.2055 -56.2019 -56.2019 -56.2018 -56.2018
   -56.1911 -56.1911 -56.1911 -56.1910 -56.1882 -56.1882 -56.1880 -56.1880
   -56.1726 -56.1726 -56.1726 -56.1726 -56.1716 -56.1716 -56.1716 -56.1716
   -56.1710 -56.1710 -56.1710 -56.1709 -56.1648 -56.1648 -56.1646 -56.1646
   -56.1619 -56.1619 -56.1618 -56.1618 -46.9291 -46.9291 -42.0706 -42.0705
   -41.8028 -41.8027 -41.7743 -41.7742 -20.7577 -20.7577 -20.7525 -20.7525
   -20.7523 -20.7523 -10.5421 -10.5001 -10.3512 -10.3373 -10.3282 -10.3043
   -10.2936 -10.2732 -10.2074 -10.1858 -10.1667 -10.1581  -0.0503   0.1328
     0.2989   0.3375   0.4035   0.4569   0.4708   0.5652   0.5903   0.6218
     0.7443   0.9060   0.9395   1.1281   1.1575   1.2326   1.2744   1.3212
     1.5057   1.6941   1.7049   1.7186   1.7399   1.7536   1.8070   1.9383
     2.0143   2.0410   2.0771   2.1213   2.1292   2.2297   2.3151   2.3449
     2.4049   2.4388   7.2035   7.2608   7.2823   7.3031   7.4042   7.4148
     8.6800   8.8570   8.9097   9.0471   9.2819   9.4108   9.4609   9.6337
     9.9072   9.9201   9.9619  10.0926  10.2937  10.3049  10.4677  10.4988
    11.1118  11.1582

          k =-0.0718 0.0000 0.0255 ( 28926 PWs)   bands (ev):

   -56.2566 -56.2566 -56.2566 -56.2566 -56.2537 -56.2537 -56.2537 -56.2536
   -56.2390 -56.2389 -56.2389 -56.2389 -56.2337 -56.2336 -56.2336 -56.2336
   -56.2313 -56.2312 -56.2312 -56.2312 -56.2177 -56.2177 -56.2177 -56.2176
   -56.2056 -56.2056 -56.2055 -56.2055 -56.2019 -56.2019 -56.2018 -56.2018
   -56.1911 -56.1911 -56.1911 -56.1910 -56.1882 -56.1882 -56.1880 -56.1880
   -56.1726 -56.1726 -56.1726 -56.1726 -56.1716 -56.1716 -56.1716 -56.1716
   -56.1710 -56.1710 -56.1709 -56.1709 -56.1648 -56.1648 -56.1646 -56.1646
   -56.1619 -56.1619 -56.1618 -56.1618 -46.9291 -46.9291 -42.0706 -42.0705
   -41.8028 -41.8027 -41.7743 -41.7742 -20.7578 -20.7578 -20.7526 -20.7525
   -20.7523 -20.7523 -10.5206 -10.4634 -10.3642 -10.3300 -10.3292 -10.3054
   -10.2998 -10.2704 -10.2336 -10.1975 -10.1731 -10.1639  -0.1087   0.0344
     0.2046   0.2587   0.3467   0.3746   0.4218   0.4707   0.5595   0.6587
     0.7011   0.9277   1.0646   1.1222   1.2835   1.3321   1.4545   1.5593
     1.5716   1.6579   1.6778   1.7275   1.7876   1.7959   1.8689   1.9745
     2.0043   2.0443   2.0843   2.1361   2.1649   2.2503   2.2539   2.3464
     2.3870   2.4988   7.1334   7.2054   7.2249   7.2548   7.3276   7.3476
     8.6194   8.8657   8.9657   9.0437   9.1303   9.2457   9.4266   9.4865
     9.6393   9.7283   9.8337   9.9145   9.9872  10.1163  10.2970  10.4621
    11.0354  11.2221

          k =-0.0718 0.0000-0.1020 ( 28970 PWs)   bands (ev):

   -56.2566 -56.2566 -56.2566 -56.2566 -56.2537 -56.2537 -56.2537 -56.2537
   -56.2390 -56.2390 -56.2389 -56.2389 -56.2337 -56.2336 -56.2336 -56.2336
   -56.2313 -56.2313 -56.2312 -56.2312 -56.2177 -56.2177 -56.2177 -56.2177
   -56.2056 -56.2056 -56.2055 -56.2055 -56.2019 -56.2019 -56.2018 -56.2018
   -56.1911 -56.1911 -56.1911 -56.1910 -56.1882 -56.1882 -56.1880 -56.1880
   -56.1727 -56.1726 -56.1726 -56.1726 -56.1716 -56.1716 -56.1716 -56.1716
   -56.1710 -56.1710 -56.1709 -56.1709 -56.1648 -56.1648 -56.1646 -56.1646
   -56.1619 -56.1619 -56.1618 -56.1618 -46.9291 -46.9291 -42.0706 -42.0705
   -41.8028 -41.8027 -41.7743 -41.7743 -20.7578 -20.7578 -20.7526 -20.7526
   -20.7523 -20.7523 -10.4794 -10.4794 -10.3517 -10.3517 -10.3215 -10.3215
   -10.2757 -10.2757 -10.2264 -10.2264 -10.1716 -10.1716  -0.0759  -0.0758
     0.1916   0.1916   0.3252   0.3253   0.3911   0.3911   0.6117   0.6117
     0.8639   0.8639   1.1786   1.1786   1.2989   1.2989   1.5689   1.5689
     1.6426   1.6427   1.6983   1.6983   1.8223   1.8223   1.8466   1.8466
     2.0446   2.0446   2.0958   2.0958   2.2808   2.2808   2.3090   2.3090
     2.4574   2.4574   7.1532   7.1533   7.2215   7.2215   7.2713   7.2714
     8.6335   8.6335   9.0439   9.0439   9.1859   9.1859   9.3197   9.3197
     9.5817   9.5818   9.7786   9.7786  10.0966  10.0966  10.4139  10.4139
    11.0475  11.0476

          k =-0.0718 0.0278-0.0255 ( 28928 PWs)   bands (ev):

   -56.2566 -56.2566 -56.2566 -56.2565 -56.2537 -56.2537 -56.2537 -56.2537
   -56.2389 -56.2389 -56.2389 -56.2389 -56.2337 -56.2336 -56.2336 -56.2336
   -56.2313 -56.2313 -56.2312 -56.2312 -56.2177 -56.2177 -56.2177 -56.2176
   -56.2056 -56.2056 -56.2055 -56.2055 -56.2019 -56.2019 -56.2019 -56.2018
   -56.1911 -56.1911 -56.1911 -56.1910 -56.1882 -56.1882 -56.1880 -56.1880
   -56.1726 -56.1726 -56.1726 -56.1726 -56.1716 -56.1716 -56.1716 -56.1716
   -56.1710 -56.1710 -56.1710 -56.1709 -56.1648 -56.1648 -56.1646 -56.1646
   -56.1619 -56.1619 -56.1618 -56.1618 -46.9291 -46.9291 -42.0706 -42.0705
   -41.8028 -41.8027 -41.7743 -41.7742 -20.7577 -20.7577 -20.7525 -20.7525
   -20.7522 -20.7522 -10.5280 -10.5280 -10.3824 -10.3823 -10.2903 -10.2903
   -10.2609 -10.2608 -10.2062 -10.2062 -10.1554 -10.1554   0.0318   0.0318
     0.2779   0.2779   0.4716   0.4717   0.6272   0.6272   0.6798   0.6798
     0.8912   0.8912   0.9856   0.9857   1.1939   1.1939   1.2573   1.2574
     1.4840   1.4840   1.6056   1.6056   1.7951   1.7951   1.8665   1.8665
     1.9554   1.9554   2.0551   2.0551   2.2314   2.2314   2.2915   2.2915
     2.4374   2.4374   7.2354   7.2355   7.3549   7.3549   7.4674   7.4674
     8.6312   8.6312   9.2818   9.2818   9.3322   9.3322   9.7816   9.7816
     9.8885   9.8885  10.1283  10.1283  10.5051  10.5051  10.7924  10.7924
    11.0204  11.0204

          k =-0.0718 0.0278-0.0000 ( 28927 PWs)   bands (ev):

   -56.2566 -56.2566 -56.2566 -56.2566 -56.2537 -56.2537 -56.2537 -56.2537
   -56.2389 -56.2389 -56.2389 -56.2389 -56.2337 -56.2336 -56.2336 -56.2336
   -56.2313 -56.2313 -56.2312 -56.2312 -56.2177 -56.2177 -56.2177 -56.2176
   -56.2056 -56.2056 -56.2055 -56.2055 -56.2019 -56.2018 -56.2018 -56.2018
   -56.1911 -56.1911 -56.1911 -56.1910 -56.1882 -56.1882 -56.1880 -56.1880
   -56.1726 -56.1726 -56.1726 -56.1726 -56.1716 -56.1716 -56.1716 -56.1716
   -56.1710 -56.1710 -56.1710 -56.1709 -56.1648 -56.1648 -56.1646 -56.1646
   -56.1619 -56.1619 -56.1618 -56.1618 -46.9291 -46.9291 -42.0706 -42.0705
   -41.8028 -41.8027 -41.7743 -41.7742 -20.7577 -20.7577 -20.7525 -20.7525
   -20.7523 -20.7522 -10.5281 -10.5052 -10.3807 -10.3699 -10.3054 -10.2922
   -10.2696 -10.2589 -10.2160 -10.2020 -10.1618 -10.1580  -0.0637   0.0066
     0.2799   0.3120   0.4127   0.4487   0.5556   0.5754   0.5981   0.6819
     0.8405   0.9517   0.9670   1.1114   1.1973   1.2175   1.3509   1.3618
     1.4742   1.5744   1.6359   1.6452   1.7731   1.7830   1.8857   1.8962
     2.0059   2.0131   2.0895   2.0908   2.1647   2.2064   2.2247   2.3075
     2.4298   2.4588   7.1804   7.2124   7.3207   7.3635   7.4262   7.4460
     8.6897   8.7201   8.9913   9.1193   9.3967   9.4079   9.5546   9.6641
     9.7620   9.7905  10.0163  10.2720  10.4276  10.4316  10.7168  10.7361
    10.9439  10.9672

          k =-0.0718 0.0278 0.0255 ( 28973 PWs)   bands (ev):

   -56.2566 -56.2566 -56.2566 -56.2566 -56.2537 -56.2537 -56.2537 -56.2537
   -56.2390 -56.2390 -56.2389 -56.2389 -56.2337 -56.2337 -56.2336 -56.2336
   -56.2313 -56.2313 -56.2312 -56.2312 -56.2177 -56.2177 -56.2177 -56.2177
   -56.2056 -56.2056 -56.2055 -56.2055 -56.2019 -56.2019 -56.2019 -56.2018
   -56.1911 -56.1911 -56.1911 -56.1910 -56.1882 -56.1882 -56.1880 -56.1880
   -56.1727 -56.1726 -56.1726 -56.1726 -56.1716 -56.1716 -56.1716 -56.1716
   -56.1711 -56.1710 -56.1710 -56.1709 -56.1648 -56.1648 -56.1646 -56.1646
   -56.1619 -56.1619 -56.1618 -56.1618 -46.9291 -46.9291 -42.0706 -42.0705
   -41.8028 -41.8027 -41.7743 -41.7742 -20.7578 -20.7578 -20.7526 -20.7526
   -20.7523 -20.7522 -10.5039 -10.4723 -10.3779 -10.3585 -10.3291 -10.3151
   -10.2674 -10.2453 -10.2325 -10.2031 -10.1765 -10.1693  -0.1589  -0.1072
     0.2597   0.2890   0.3576   0.3761   0.4551   0.5016   0.6241   0.6794
     0.8553   0.9671   1.0366   1.1293   1.2381   1.2480   1.4615   1.5105
     1.5885   1.6357   1.6714   1.6866   1.7489   1.7637   1.9134   1.9644
     2.0163   2.0205   2.1355   2.1523   2.1841   2.2012   2.2790   2.3547
     2.3884   2.4329   7.0828   7.1250   7.3045   7.3181   7.3680   7.3740
     8.7124   8.8157   8.8951   8.9251   9.1160   9.1297   9.3899   9.3920
     9.6698   9.7795  10.1069  10.1412  10.3903  10.4714  10.6294  10.6343
    10.9316  11.0079

          k =-0.0718 0.0278-0.1020 ( 28978 PWs)   bands (ev):

   -56.2566 -56.2566 -56.2566 -56.2566 -56.2537 -56.2537 -56.2537 -56.2537
   -56.2390 -56.2390 -56.2389 -56.2389 -56.2337 -56.2337 -56.2336 -56.2336
   -56.2313 -56.2313 -56.2312 -56.2312 -56.2177 -56.2177 -56.2177 -56.2176
   -56.2056 -56.2056 -56.2055 -56.2055 -56.2019 -56.2019 -56.2019 -56.2018
   -56.1911 -56.1911 -56.1911 -56.1910 -56.1882 -56.1882 -56.1880 -56.1880
   -56.1727 -56.1726 -56.1726 -56.1726 -56.1716 -56.1716 -56.1716 -56.1716
   -56.1710 -56.1710 -56.1710 -56.1709 -56.1648 -56.1648 -56.1646 -56.1646
   -56.1619 -56.1619 -56.1618 -56.1618 -46.9291 -46.9291 -42.0706 -42.0705
   -41.8028 -41.8027 -41.7743 -41.7743 -20.7578 -20.7578 -20.7526 -20.7526
   -20.7523 -20.7523 -10.4692 -10.4692 -10.3777 -10.3777 -10.3248 -10.3247
   -10.2546 -10.2546 -10.2188 -10.2188 -10.1811 -10.1811  -0.1785  -0.1785
     0.2433   0.2433   0.3301   0.3301   0.4659   0.4659   0.6690   0.6691
     0.9228   0.9228   1.1438   1.1438   1.2283   1.2283   1.5280   1.5280
     1.6005   1.6005   1.6920   1.6920   1.7321   1.7321   1.9501   1.9501
     2.1056   2.1056   2.1256   2.1256   2.2732   2.2732   2.3065   2.3065
     2.3967   2.3967   7.0527   7.0527   7.2920   7.2920   7.3365   7.3365
     8.6827   8.6827   8.8160   8.8160   9.1886   9.1886   9.2785   9.2785
     9.6809   9.6809  10.1099  10.1100  10.4262  10.4262  10.6414  10.6414
    10.9400  10.9400

     the Fermi energy is     4.8624 ev

!    total energy              =   -6740.47932533 Ry

     total all-electron energy =   -114993.495283 Ry
     estimated scf accuracy    <          7.3E-09 Ry
     smearing contrib. (-TS)   =      -0.00000000 Ry
     internal energy E=F+TS    =   -6740.47932533 Ry

     The total energy is F=E-TS. E is the sum of the following terms:
     one-electron contribution =   -3515.80766598 Ry
     hartree contribution      =    1688.13236925 Ry
     xc contribution           =    -503.26878574 Ry
     ewald contribution        =   -1690.68325647 Ry
     one-center paw contrib.   =   -2718.85198639 Ry

     convergence has been achieved in   9 iterations

     Forces acting on atoms (cartesian axes, Ry/au):

     atom    1 type  1   force =     0.00000000   -0.00195984    0.00000000
     atom    2 type  1   force =     0.00000000    0.00041921    0.00000000
     atom    3 type  1   force =     0.00000000   -0.00027323    0.00000000
     atom    4 type  1   force =     0.00000000   -0.00194776    0.00000000
     atom    5 type  1   force =     0.00000000    0.00042536    0.00000000
     atom    6 type  1   force =     0.00000000   -0.00026812    0.00000000
     atom    7 type  2   force =     0.00000000    0.00080647    0.00000000
     atom    8 type  2   force =     0.00000000    0.00082682    0.00000000
     atom    9 type  3   force =     0.00099070    0.00179079    0.00380490
     atom   10 type  3   force =     0.00309742   -0.00239406    0.00127784
     atom   11 type  3   force =    -0.00309742   -0.00239406   -0.00127784
     atom   12 type  3   force =    -0.00099070    0.00179079   -0.00380490
     atom   13 type  3   force =    -0.00330237    0.00148977    0.00334607
     atom   14 type  3   force =     0.00330237    0.00148977   -0.00334607
     atom   15 type  3   force =     0.00095267    0.00151162    0.00381598
     atom   16 type  3   force =     0.00308479   -0.00264950    0.00126493
     atom   17 type  3   force =    -0.00308479   -0.00264950   -0.00126493
     atom   18 type  3   force =    -0.00095267    0.00151162   -0.00381598
     atom   19 type  3   force =    -0.00319064    0.00123691    0.00337595
     atom   20 type  3   force =     0.00319064    0.00123691   -0.00337595

     Total force =     0.015728     Total SCF correction =     0.000382


     Computing stress (Cartesian axis) and pressure

          total   stress  (Ry/bohr**3)                   (kbar)     P=       -8.03
  -0.00005771   0.00000000   0.00000129           -8.49        0.00        0.19
   0.00000000  -0.00005933   0.00000000            0.00       -8.73        0.00
   0.00000129   0.00000000  -0.00004672            0.19        0.00       -6.87


     Writing output data file ./pwscf.save/
 
     init_run     :      5.17s CPU      5.34s WALL (       1 calls)
     electrons    :    140.50s CPU    142.40s WALL (       1 calls)
     forces       :      2.07s CPU      2.08s WALL (       1 calls)
     stress       :     12.74s CPU     12.78s WALL (       1 calls)

     Called by init_run:
     wfcinit      :      3.96s CPU      4.05s WALL (       1 calls)
     potinit      :      0.45s CPU      0.46s WALL (       1 calls)
     hinit0       :      0.52s CPU      0.55s WALL (       1 calls)

     Called by electrons:
     c_bands      :    124.41s CPU    125.82s WALL (      10 calls)
     sum_band     :     14.26s CPU     14.56s WALL (      10 calls)
     v_of_rho     :      0.24s CPU      0.24s WALL (      10 calls)
     newd         :      0.70s CPU      0.72s WALL (      10 calls)
     PAW_pot      :      0.96s CPU      0.97s WALL (      10 calls)
     mix_rho      :      0.05s CPU      0.05s WALL (      10 calls)

     Called by c_bands:
     init_us_2    :      1.10s CPU      1.11s WALL (     460 calls)
     cegterg      :    114.69s CPU    116.02s WALL (     200 calls)

     Called by *egterg:
     cdiaghg      :     35.16s CPU     35.31s WALL (    1085 calls)
     h_psi        :     55.49s CPU     56.59s WALL (    1125 calls)
     s_psi        :      5.18s CPU      5.21s WALL (    1125 calls)
     g_psi        :      0.21s CPU      0.21s WALL (     905 calls)

     Called by h_psi:
     h_psi:calbec :      5.76s CPU      5.81s WALL (    1125 calls)
     vloc_psi     :     43.98s CPU     45.00s WALL (    1125 calls)
     add_vuspsi   :      5.21s CPU      5.24s WALL (    1125 calls)

     General routines
     calbec       :      9.12s CPU      9.18s WALL (    1425 calls)
     fft          :      0.18s CPU      0.20s WALL (     154 calls)
     ffts         :      0.02s CPU      0.02s WALL (      20 calls)
     fftw         :     48.82s CPU     49.96s WALL (  173636 calls)
     interpolate  :      0.02s CPU      0.02s WALL (      10 calls)
 
     Parallel routines
     fft_scatt_xy :      6.00s CPU      6.12s WALL (  173810 calls)
     fft_scatt_yz :     22.31s CPU     22.82s WALL (  173810 calls)
 
     PWSCF        :   2m42.17s CPU   2m50.73s WALL

 
   This run was terminated on:  17:33:47   2Aug2021            

=------------------------------------------------------------------------------=
   JOB DONE.
=------------------------------------------------------------------------------=
