
     Program PWSCF v.6.7MaX starts on 26Jul2021 at 14:31:42 

     This program is part of the open-source Quantum ESPRESSO suite
     for quantum simulation of materials; please cite
         "P. Giannozzi et al., J. Phys.:Condens. Matter 21 395502 (2009);
         "P. Giannozzi et al., J. Phys.:Condens. Matter 29 465901 (2017);
          URL http://www.quantum-espresso.org", 
     in publications or presentations arising from this work. More details at
     http://www.quantum-espresso.org/quote

     Parallel version (MPI), running on    48 processors

     MPI processes distributed on     2 nodes
     K-points division:     npool     =       2
     R & G space division:  proc/nbgrp/npool/nimage =      24
     Waiting for input...
     Reading input from standard input
Warning: card &CELL ignored
Warning: card CELL_DYNAMICS             = 'BFGS', ignored
Warning: card PRESS                     = '0.0', ignored
Warning: card PRESS_CONV_THR            = '0.5', ignored
Warning: card / ignored
     Message from routine read_cards :
     DEPRECATED: no units specified in CELL_PARAMETERS card

     Current dimensions of program PWSCF are:
     Max number of different atomic species (ntypx) = 10
     Max number of k-points (npk) =  40000
     Max angular momentum in pseudopotentials (lmaxx) =  3
     Message from routine cell_base_init:
     DEPRECATED: use true lattice parameter, not A to a.u. conversion factor
 end of file reached, closing tag not found
     file Er.pbe-spdn-kjpaw_psl.1.0.0.UPF: wavefunction(s)  6S 5D renormalized
     file Br.pbe-dn-kjpaw_psl.1.0.0.UPF: wavefunction(s)  4S 4P 3D renormalized

     Subspace diagonalization in iterative solution of the eigenvalue problem:
     a serial algorithm will be used

     Found symmetry operation: I + ( -0.5000 -0.5000  0.0000)
     This is a supercell, fractional translations are disabled
     Message from routine setup:
     using ibrav=0 with symmetry is DISCOURAGED, use correct ibrav instead
 
     Parallelization info
     --------------------
     sticks:   dense  smooth     PW     G-vecs:    dense   smooth      PW
     Min         494     395    107                29013    20763    2953
     Max         496     396    108                29014    20766    2957
     Sum       11877    9495   2585               696327   498349   70921
 


     bravais-lattice index     =            0
     lattice parameter (alat)  =       1.8897  a.u.
     unit-cell volume          =    3688.3023 (a.u.)^3
     number of atoms/cell      =           20
     number of atomic types    =            3
     number of electrons       =       244.00
     number of Kohn-Sham states=          146
     kinetic-energy cutoff     =     100.0000  Ry
     charge density cutoff     =     500.0000  Ry
     scf convergence threshold =      1.0E-08
     mixing beta               =       0.4000
     number of iterations used =            8  plain     mixing
     Exchange-correlation= SLA  PW   PBX  PBC
                           (   1   4   3   4   0   0   0)

     celldm(1)=   1.889726  celldm(2)=   0.000000  celldm(3)=   0.000000
     celldm(4)=   0.000000  celldm(5)=   0.000000  celldm(6)=   0.000000

     crystal axes: (cart. coord. in units of alat)
               a(1) = (   6.967356   0.000000   0.000000 )  
               a(2) = (   0.000000  11.998880   0.000000 )  
               a(3) = (  -2.324723   0.000000   6.537643 )  

     reciprocal axes: (cart. coord. in units 2 pi/alat)
               b(1) = (  0.143526  0.000000  0.051037 )  
               b(2) = (  0.000000  0.083341  0.000000 )  
               b(3) = (  0.000000  0.000000  0.152960 )  


     PseudoPot. # 1 for Li read from file:
     /central/groups/SeeGroup/qe_pseudopotentials/Li.pbe-s-kjpaw_psl.1.0.0.UPF
     MD5 check sum: cc502796ee09d8b62ac346ee26e59beb
     Pseudo is Projector augmented-wave, Zval =  3.0
     Generated using &quot;atomic&quot; code by A. Dal Corso  v.6.3
     Shape of augmentation charge: PSQ
     Using radial grid of 1017 points,  4 beta functions with: 
                l(1) =   0
                l(2) =   0
                l(3) =   1
                l(4) =   1
     Q(r) pseudized with 0 coefficients 


     PseudoPot. # 2 for Er read from file:
     /central/groups/SeeGroup/qe_pseudopotentials/Er.pbe-spdn-kjpaw_psl.1.0.0.UPF
     MD5 check sum: a923254af2aef992cff3e18bc73f2922
     Pseudo is Projector augmented-wave + core cor, Zval = 11.0
     Generated using &quot;atomic&quot; code by A. Dal Corso  v.6.2.2
     Shape of augmentation charge: PSQ
     Using radial grid of 1267 points,  6 beta functions with: 
                l(1) =   0
                l(2) =   0
                l(3) =   1
                l(4) =   1
                l(5) =   2
                l(6) =   2
     Q(r) pseudized with 0 coefficients 


     PseudoPot. # 3 for Br read from file:
     /central/groups/SeeGroup/qe_pseudopotentials/Br.pbe-dn-kjpaw_psl.1.0.0.UPF
     MD5 check sum: 4ca4ebabfd6065c7bb707b2ebe99e9b3
     Pseudo is Projector augmented-wave + core cor, Zval = 17.0
     Generated using &quot;atomic&quot; code by A. Dal Corso  v.6.3
     Shape of augmentation charge: PSQ
     Using radial grid of 1213 points,  6 beta functions with: 
                l(1) =   0
                l(2) =   0
                l(3) =   1
                l(4) =   1
                l(5) =   2
                l(6) =   2
     Q(r) pseudized with 0 coefficients 


     atomic species   valence    mass     pseudopotential
        Li             3.00     6.94100     Li( 1.00)
        Er            11.00   167.25900     Er( 1.00)
        Br            17.00    79.90400     Br( 1.00)

      2 Sym. Ops. (no inversion) found



   Cartesian axes

     site n.     atom                  positions (alat units)
         1           Li  tau(   1) = (   3.4836780   9.9564306   0.0000000  )
         2           Li  tau(   2) = (   3.4836780   2.0173957   0.0000000  )
         3           Li  tau(   3) = (   2.3213165   7.8846440   3.2688215  )
         4           Li  tau(   4) = (   0.0000000   3.9569906   0.0000000  )
         5           Li  tau(   5) = (   0.0000000   8.0168357   0.0000000  )
         6           Li  tau(   6) = (  -1.1623615   1.8852040   3.2688215  )
         7           Er  tau(   7) = (   3.4836780   5.9699947   0.0000000  )
         8           Er  tau(   8) = (   0.0000000  11.9694347   0.0000000  )
         9           Br  tau(   9) = (   3.4471523   9.9581465   5.0158758  )
        10           Br  tau(  10) = (   3.5847273   1.9854607   4.9258002  )
        11           Br  tau(  11) = (   1.0579057   1.9854607   1.6118428  )
        12           Br  tau(  12) = (   1.1954807   9.9581465   1.5217672  )
        13           Br  tau(  13) = (  -0.0150075   0.0698395   4.9769442  )
        14           Br  tau(  14) = (   4.6576405   0.0698395   1.5606988  )
        15           Br  tau(  15) = (  -0.0365257   3.9587065   5.0158758  )
        16           Br  tau(  16) = (   0.1010493   7.9849007   4.9258002  )
        17           Br  tau(  17) = (   4.5415837   7.9849007   1.6118428  )
        18           Br  tau(  18) = (   4.6791587   3.9587065   1.5217672  )
        19           Br  tau(  19) = (   3.4686705   6.0692795   4.9769442  )
        20           Br  tau(  20) = (   1.1739625   6.0692795   1.5606988  )

     number of k points=     8  Fermi-Dirac smearing, width (Ry)=  0.0070
                       cart. coord. in units 2pi/alat
        k(    1) = (   0.0000000   0.0000000   0.0000000), wk =   0.2500000
        k(    2) = (   0.0000000   0.0000000  -0.0764802), wk =   0.2500000
        k(    3) = (   0.0000000  -0.0416706   0.0000000), wk =   0.2500000
        k(    4) = (   0.0000000  -0.0416706  -0.0764802), wk =   0.2500000
        k(    5) = (  -0.0717632   0.0000000  -0.0255183), wk =   0.2500000
        k(    6) = (  -0.0717632   0.0000000  -0.1019985), wk =   0.2500000
        k(    7) = (  -0.0717632  -0.0416706  -0.0255183), wk =   0.2500000
        k(    8) = (  -0.0717632  -0.0416706  -0.1019985), wk =   0.2500000

     Dense  grid:   696327 G-vectors     FFT dimensions: (  96, 162,  96)

     Smooth grid:   498349 G-vectors     FFT dimensions: (  90, 150,  90)

     Estimated max dynamical RAM per process >     113.17 MB

     Estimated total dynamical RAM >       5.31 GB

     Initial potential from superposition of free atoms

     starting charge  243.93496, renormalised to  244.00000
     Starting wfcs are  164 randomized atomic wfcs
     Checking if some PAW data can be deallocated... 

     total cpu time spent up to now is        4.4 secs

     Self-consistent Calculation

     iteration #  1     ecut=   100.00 Ry     beta= 0.40
     Davidson diagonalization with overlap
     ethr =  1.00E-02,  avg # of iterations =  5.0

     Threshold (ethr) on eigenvalues was too large:
     Diagonalizing with lowered threshold

     Davidson diagonalization with overlap
     ethr =  1.17E-04,  avg # of iterations =  6.5

     total cpu time spent up to now is       16.6 secs

     total energy              =   -6740.52255969 Ry
     estimated scf accuracy    <       0.28352216 Ry

     iteration #  2     ecut=   100.00 Ry     beta= 0.40
     Davidson diagonalization with overlap
     ethr =  1.16E-04,  avg # of iterations =  3.1

     total cpu time spent up to now is       22.3 secs

     total energy              =   -6740.54871842 Ry
     estimated scf accuracy    <       0.03944987 Ry

     iteration #  3     ecut=   100.00 Ry     beta= 0.40
     Davidson diagonalization with overlap
     ethr =  1.62E-05,  avg # of iterations =  7.1

     total cpu time spent up to now is       29.0 secs

     total energy              =   -6740.55381021 Ry
     estimated scf accuracy    <       0.00555815 Ry

     iteration #  4     ecut=   100.00 Ry     beta= 0.40
     Davidson diagonalization with overlap
     c_bands:  1 eigenvalues not converged
     ethr =  2.28E-06,  avg # of iterations =  9.8

     total cpu time spent up to now is       37.1 secs

     total energy              =   -6740.55449323 Ry
     estimated scf accuracy    <       0.00076237 Ry

     iteration #  5     ecut=   100.00 Ry     beta= 0.40
     Davidson diagonalization with overlap
     ethr =  3.12E-07,  avg # of iterations =  2.0

     total cpu time spent up to now is       42.0 secs

     total energy              =   -6740.55462313 Ry
     estimated scf accuracy    <       0.00016073 Ry

     iteration #  6     ecut=   100.00 Ry     beta= 0.40
     Davidson diagonalization with overlap
     ethr =  6.59E-08,  avg # of iterations =  2.0

     total cpu time spent up to now is       47.0 secs

     total energy              =   -6740.55463952 Ry
     estimated scf accuracy    <       0.00003110 Ry

     iteration #  7     ecut=   100.00 Ry     beta= 0.40
     Davidson diagonalization with overlap
     ethr =  1.27E-08,  avg # of iterations =  2.0

     total cpu time spent up to now is       52.1 secs

     total energy              =   -6740.55464109 Ry
     estimated scf accuracy    <       0.00000116 Ry

     iteration #  8     ecut=   100.00 Ry     beta= 0.40
     Davidson diagonalization with overlap
     ethr =  4.75E-10,  avg # of iterations =  2.0

     total cpu time spent up to now is       57.5 secs

     total energy              =   -6740.55464120 Ry
     estimated scf accuracy    <       0.00000015 Ry

     iteration #  9     ecut=   100.00 Ry     beta= 0.40
     Davidson diagonalization with overlap
     ethr =  6.20E-11,  avg # of iterations =  2.1

     total cpu time spent up to now is       62.7 secs

     total energy              =   -6740.55464123 Ry
     estimated scf accuracy    <       0.00000001 Ry

     iteration # 10     ecut=   100.00 Ry     beta= 0.40
     Davidson diagonalization with overlap
     ethr =  4.52E-12,  avg # of iterations =  2.6

     total cpu time spent up to now is       68.1 secs

     End of self-consistent calculation

          k = 0.0000 0.0000 0.0000 ( 62259 PWs)   bands (ev):

   -56.2742 -56.2742 -56.2742 -56.2742 -56.2713 -56.2713 -56.2713 -56.2713
   -56.2566 -56.2566 -56.2565 -56.2565 -56.2514 -56.2514 -56.2514 -56.2513
   -56.2490 -56.2490 -56.2490 -56.2490 -56.2360 -56.2359 -56.2359 -56.2359
   -56.2238 -56.2238 -56.2238 -56.2237 -56.2202 -56.2201 -56.2201 -56.2201
   -56.2094 -56.2094 -56.2094 -56.2093 -56.2065 -56.2065 -56.2064 -56.2064
   -56.1908 -56.1908 -56.1907 -56.1907 -56.1898 -56.1898 -56.1898 -56.1898
   -56.1892 -56.1892 -56.1892 -56.1891 -56.1830 -56.1830 -56.1829 -56.1829
   -56.1800 -56.1800 -56.1800 -56.1799 -46.9330 -46.9329 -42.0687 -42.0687
   -41.7992 -41.7992 -41.7708 -41.7707 -20.7608 -20.7608 -20.7555 -20.7553
   -20.7552 -20.7552 -10.7197 -10.5385 -10.3927 -10.2860 -10.2762 -10.2670
   -10.2345 -10.2298 -10.2222 -10.1578 -10.1523 -10.1267  -0.1670  -0.1579
     0.2195   0.2458   0.2648   0.4090   0.4563   0.6234   0.6738   0.7425
     0.8635   0.8637   0.8744   0.9998   1.1264   1.2427   1.2654   1.2690
     1.2744   1.4843   1.5267   1.6965   1.7419   1.9397   1.9821   2.0186
     2.0571   2.0747   2.1889   2.2424   2.3339   2.4642   2.5296   2.5300
     2.5748   2.5809   7.0474   7.3029   7.4454   7.4657   7.4669   7.5187
     7.5479   8.7256   8.7432   8.8096   9.1077   9.1641   9.3654   9.3992
     9.4768   9.7252   9.9183  10.3119  10.3260  10.3778  10.6711  10.8582
    10.9502  11.1017

          k = 0.0000 0.0000-0.0765 ( 62272 PWs)   bands (ev):

   -56.2742 -56.2742 -56.2742 -56.2742 -56.2713 -56.2713 -56.2713 -56.2713
   -56.2566 -56.2566 -56.2565 -56.2565 -56.2514 -56.2514 -56.2514 -56.2514
   -56.2490 -56.2490 -56.2490 -56.2490 -56.2360 -56.2359 -56.2359 -56.2359
   -56.2238 -56.2238 -56.2237 -56.2237 -56.2202 -56.2202 -56.2201 -56.2201
   -56.2094 -56.2094 -56.2094 -56.2093 -56.2065 -56.2065 -56.2064 -56.2064
   -56.1908 -56.1908 -56.1907 -56.1907 -56.1898 -56.1898 -56.1898 -56.1898
   -56.1892 -56.1892 -56.1892 -56.1891 -56.1830 -56.1830 -56.1829 -56.1829
   -56.1800 -56.1800 -56.1799 -56.1799 -46.9330 -46.9329 -42.0687 -42.0687
   -41.7992 -41.7992 -41.7708 -41.7707 -20.7609 -20.7608 -20.7555 -20.7553
   -20.7552 -20.7552 -10.6084 -10.4556 -10.3776 -10.3424 -10.3174 -10.2825
   -10.2705 -10.2555 -10.2385 -10.1807 -10.1608 -10.1399   0.0264   0.1848
     0.1923   0.2502   0.3953   0.4997   0.5844   0.6749   0.6869   0.7362
     0.7838   0.9506   0.9921   1.0462   1.0964   1.2101   1.2722   1.3617
     1.3899   1.4557   1.4677   1.5340   1.6705   1.7971   1.8885   1.9013
     1.9553   2.0714   2.1235   2.1348   2.1457   2.2894   2.3002   2.3364
     2.4584   2.4616   7.1909   7.2150   7.2502   7.3271   7.4873   7.5779
     8.6399   8.7939   8.9088   9.0795   9.1937   9.4472   9.8908   9.9493
     9.9586  10.0387  10.0419  10.1879  10.2489  10.3071  10.7767  10.8089
    10.9753  10.9887

          k = 0.0000-0.0417 0.0000 ( 62276 PWs)   bands (ev):

   -56.2742 -56.2742 -56.2742 -56.2742 -56.2713 -56.2713 -56.2713 -56.2713
   -56.2566 -56.2566 -56.2565 -56.2565 -56.2514 -56.2514 -56.2514 -56.2513
   -56.2490 -56.2490 -56.2490 -56.2490 -56.2360 -56.2359 -56.2359 -56.2359
   -56.2238 -56.2238 -56.2238 -56.2237 -56.2202 -56.2201 -56.2201 -56.2201
   -56.2094 -56.2094 -56.2094 -56.2093 -56.2065 -56.2065 -56.2064 -56.2064
   -56.1908 -56.1908 -56.1907 -56.1907 -56.1898 -56.1898 -56.1898 -56.1898
   -56.1892 -56.1892 -56.1892 -56.1891 -56.1830 -56.1830 -56.1829 -56.1829
   -56.1800 -56.1800 -56.1800 -56.1799 -46.9330 -46.9329 -42.0687 -42.0687
   -41.7992 -41.7992 -41.7708 -41.7707 -20.7608 -20.7608 -20.7554 -20.7553
   -20.7553 -20.7552 -10.6515 -10.6515 -10.3152 -10.3152 -10.2872 -10.2872
   -10.1920 -10.1920 -10.1797 -10.1797 -10.1762 -10.1762  -0.1219  -0.1218
     0.1055   0.1056   0.3391   0.3391   0.5112   0.5112   0.7143   0.7143
     0.8501   0.8502   1.0672   1.0672   1.1423   1.1423   1.3248   1.3248
     1.4277   1.4277   1.7560   1.7560   1.8689   1.8689   1.9410   1.9410
     1.9769   1.9769   2.2806   2.2806   2.3279   2.3279   2.4142   2.4142
     2.5483   2.5483   7.2709   7.2709   7.4557   7.4557   7.4806   7.4806
     8.1065   8.1065   8.8899   8.8900   9.0974   9.0974   9.3657   9.3657
     9.5746   9.5747  10.1343  10.1343  10.2474  10.2474  10.8148  10.8148
    11.1266  11.1266

          k = 0.0000-0.0417-0.0765 ( 62320 PWs)   bands (ev):

   -56.2742 -56.2742 -56.2742 -56.2742 -56.2713 -56.2713 -56.2713 -56.2713
   -56.2566 -56.2566 -56.2565 -56.2565 -56.2514 -56.2514 -56.2514 -56.2514
   -56.2490 -56.2490 -56.2490 -56.2490 -56.2360 -56.2359 -56.2359 -56.2359
   -56.2238 -56.2238 -56.2237 -56.2237 -56.2202 -56.2202 -56.2201 -56.2201
   -56.2094 -56.2094 -56.2094 -56.2093 -56.2065 -56.2065 -56.2064 -56.2064
   -56.1908 -56.1908 -56.1907 -56.1907 -56.1898 -56.1898 -56.1898 -56.1898
   -56.1892 -56.1892 -56.1892 -56.1891 -56.1830 -56.1830 -56.1829 -56.1829
   -56.1800 -56.1800 -56.1799 -56.1799 -46.9330 -46.9329 -42.0687 -42.0687
   -41.7992 -41.7992 -41.7708 -41.7707 -20.7609 -20.7608 -20.7554 -20.7553
   -20.7553 -20.7552 -10.5484 -10.5483 -10.3666 -10.3666 -10.2975 -10.2975
   -10.2303 -10.2303 -10.1911 -10.1911 -10.1810 -10.1810   0.0551   0.0552
     0.2439   0.2440   0.3750   0.3750   0.6032   0.6033   0.7483   0.7483
     0.9823   0.9823   0.9858   0.9858   1.2437   1.2437   1.2480   1.2480
     1.4928   1.4928   1.5611   1.5611   1.8071   1.8071   1.9007   1.9007
     1.9853   1.9853   1.9988   1.9988   2.1992   2.1992   2.2940   2.2940
     2.3968   2.3968   7.2830   7.2831   7.3441   7.3442   7.4705   7.4705
     8.5953   8.5953   9.2065   9.2065   9.4979   9.4979   9.8003   9.8003
    10.0173  10.0173  10.0206  10.0206  10.5290  10.5291  10.5870  10.5870
    11.1811  11.1812

          k =-0.0718 0.0000-0.0255 ( 62286 PWs)   bands (ev):

   -56.2742 -56.2742 -56.2742 -56.2742 -56.2713 -56.2713 -56.2713 -56.2713
   -56.2566 -56.2566 -56.2565 -56.2565 -56.2514 -56.2514 -56.2514 -56.2514
   -56.2490 -56.2490 -56.2490 -56.2490 -56.2360 -56.2359 -56.2359 -56.2359
   -56.2238 -56.2238 -56.2237 -56.2237 -56.2202 -56.2202 -56.2201 -56.2201
   -56.2094 -56.2094 -56.2094 -56.2093 -56.2065 -56.2065 -56.2064 -56.2064
   -56.1908 -56.1908 -56.1907 -56.1907 -56.1898 -56.1898 -56.1898 -56.1898
   -56.1892 -56.1892 -56.1892 -56.1891 -56.1830 -56.1830 -56.1829 -56.1829
   -56.1800 -56.1800 -56.1799 -56.1799 -46.9330 -46.9329 -42.0687 -42.0687
   -41.7992 -41.7992 -41.7708 -41.7707 -20.7608 -20.7608 -20.7554 -20.7554
   -20.7554 -20.7553 -10.5327 -10.5327 -10.3454 -10.3454 -10.3215 -10.3215
   -10.2677 -10.2677 -10.1896 -10.1896 -10.1584 -10.1584   0.0677   0.0677
     0.3799   0.3799   0.4267   0.4267   0.5100   0.5100   0.7355   0.7355
     0.8392   0.8392   1.0060   1.0060   1.1218   1.1218   1.1488   1.1488
     1.5915   1.5915   1.6765   1.6765   1.7188   1.7188   1.8386   1.8386
     2.0462   2.0462   2.0635   2.0635   2.1995   2.1995   2.3662   2.3662
     2.4228   2.4228   7.2738   7.2739   7.3126   7.3126   7.4276   7.4276
     8.7483   8.7484   8.9084   8.9084   9.2888   9.2888   9.8010   9.8010
    10.0626  10.0626  10.1578  10.1578  10.3753  10.3753  10.7174  10.7175
    11.1715  11.1715

          k =-0.0718 0.0000-0.1020 ( 62288 PWs)   bands (ev):

   -56.2742 -56.2742 -56.2742 -56.2742 -56.2713 -56.2713 -56.2713 -56.2713
   -56.2566 -56.2566 -56.2565 -56.2565 -56.2514 -56.2514 -56.2514 -56.2513
   -56.2490 -56.2490 -56.2490 -56.2490 -56.2360 -56.2359 -56.2359 -56.2359
   -56.2238 -56.2238 -56.2238 -56.2237 -56.2202 -56.2201 -56.2201 -56.2201
   -56.2094 -56.2094 -56.2094 -56.2093 -56.2065 -56.2065 -56.2064 -56.2064
   -56.1908 -56.1908 -56.1907 -56.1907 -56.1898 -56.1898 -56.1898 -56.1898
   -56.1892 -56.1892 -56.1892 -56.1891 -56.1830 -56.1830 -56.1829 -56.1829
   -56.1800 -56.1800 -56.1800 -56.1799 -46.9330 -46.9329 -42.0687 -42.0687
   -41.7992 -41.7992 -41.7708 -41.7707 -20.7609 -20.7608 -20.7555 -20.7554
   -20.7554 -20.7553 -10.4783 -10.4782 -10.3503 -10.3503 -10.3200 -10.3200
   -10.2744 -10.2744 -10.2251 -10.2251 -10.1702 -10.1702  -0.0771  -0.0770
     0.1890   0.1890   0.3248   0.3248   0.3912   0.3913   0.6094   0.6094
     0.8626   0.8626   1.1792   1.1792   1.2987   1.2987   1.5693   1.5693
     1.6431   1.6431   1.6981   1.6981   1.8223   1.8223   1.8471   1.8471
     2.0450   2.0450   2.0966   2.0966   2.2814   2.2814   2.3097   2.3097
     2.4580   2.4580   7.1508   7.1509   7.2203   7.2203   7.2693   7.2693
     8.6317   8.6317   9.0244   9.0245   9.1849   9.1849   9.3161   9.3161
     9.5688   9.5688   9.7592   9.7592  10.0934  10.0934  10.3988  10.3988
    11.0414  11.0414

          k =-0.0718-0.0417-0.0255 ( 62328 PWs)   bands (ev):

   -56.2742 -56.2742 -56.2742 -56.2742 -56.2713 -56.2713 -56.2713 -56.2713
   -56.2566 -56.2566 -56.2565 -56.2565 -56.2514 -56.2514 -56.2514 -56.2514
   -56.2490 -56.2490 -56.2490 -56.2490 -56.2360 -56.2359 -56.2359 -56.2359
   -56.2238 -56.2238 -56.2238 -56.2237 -56.2202 -56.2202 -56.2201 -56.2201
   -56.2094 -56.2094 -56.2094 -56.2093 -56.2065 -56.2065 -56.2064 -56.2064
   -56.1908 -56.1908 -56.1907 -56.1907 -56.1898 -56.1898 -56.1898 -56.1898
   -56.1892 -56.1892 -56.1892 -56.1891 -56.1830 -56.1830 -56.1829 -56.1829
   -56.1800 -56.1800 -56.1799 -56.1799 -46.9330 -46.9329 -42.0687 -42.0687
   -41.7992 -41.7992 -41.7708 -41.7707 -20.7608 -20.7608 -20.7555 -20.7554
   -20.7553 -20.7553 -10.5247 -10.5247 -10.3886 -10.3886 -10.2854 -10.2854
   -10.2511 -10.2511 -10.2126 -10.2126 -10.1528 -10.1528   0.0181   0.0181
     0.2641   0.2641   0.4780   0.4780   0.6444   0.6444   0.6567   0.6567
     0.9215   0.9215   0.9821   0.9821   1.2014   1.2014   1.3262   1.3262
     1.4979   1.4979   1.5138   1.5138   1.8005   1.8005   1.8397   1.8397
     1.9992   1.9992   2.0787   2.0787   2.1544   2.1544   2.3141   2.3141
     2.4358   2.4358   7.2234   7.2234   7.3575   7.3575   7.4805   7.4805
     8.6077   8.6077   9.3409   9.3410   9.4588   9.4588   9.7278   9.7278
     9.7655   9.7655  10.0834  10.0834  10.6221  10.6221  10.7968  10.7968
    10.9543  10.9544

          k =-0.0718-0.0417-0.1020 ( 62320 PWs)   bands (ev):

   -56.2742 -56.2742 -56.2742 -56.2742 -56.2713 -56.2713 -56.2713 -56.2713
   -56.2566 -56.2566 -56.2565 -56.2565 -56.2514 -56.2514 -56.2514 -56.2513
   -56.2490 -56.2490 -56.2490 -56.2490 -56.2360 -56.2359 -56.2359 -56.2359
   -56.2238 -56.2238 -56.2238 -56.2237 -56.2202 -56.2201 -56.2201 -56.2201
   -56.2094 -56.2094 -56.2094 -56.2093 -56.2065 -56.2065 -56.2064 -56.2064
   -56.1908 -56.1908 -56.1907 -56.1907 -56.1898 -56.1898 -56.1898 -56.1898
   -56.1892 -56.1892 -56.1892 -56.1891 -56.1830 -56.1830 -56.1829 -56.1829
   -56.1800 -56.1800 -56.1800 -56.1799 -46.9330 -46.9329 -42.0687 -42.0687
   -41.7992 -41.7992 -41.7708 -41.7707 -20.7609 -20.7608 -20.7555 -20.7555
   -20.7553 -20.7553 -10.4637 -10.4637 -10.3847 -10.3847 -10.3246 -10.3245
   -10.2467 -10.2467 -10.2143 -10.2143 -10.1843 -10.1843  -0.2046  -0.2046
     0.2442   0.2442   0.3317   0.3317   0.4950   0.4950   0.6874   0.6874
     0.9572   0.9572   1.1131   1.1131   1.2162   1.2162   1.5214   1.5214
     1.5502   1.5502   1.6839   1.6839   1.7420   1.7420   1.9856   1.9856
     2.1152   2.1152   2.1374   2.1374   2.2743   2.2743   2.3081   2.3081
     2.3686   2.3686   7.0316   7.0316   7.2998   7.2999   7.3556   7.3556
     8.6882   8.6882   8.7793   8.7794   9.1459   9.1459   9.2490   9.2490
     9.7497   9.7497  10.1597  10.1597  10.6128  10.6128  10.7748  10.7749
    10.8722  10.8722

     the Fermi energy is     4.8133 ev

!    total energy              =   -6740.55464124 Ry

     total all-electron energy =   -114993.570599 Ry
     estimated scf accuracy    <          1.4E-09 Ry
     smearing contrib. (-TS)   =      -0.00000000 Ry
     internal energy E=F+TS    =   -6740.55464124 Ry

     The total energy is F=E-TS. E is the sum of the following terms:
     one-electron contribution =   -3515.78833556 Ry
     hartree contribution      =    1687.87320334 Ry
     xc contribution           =    -503.20952524 Ry
     ewald contribution        =   -1690.68325647 Ry
     one-center paw contrib.   =   -2718.74672730 Ry

     convergence has been achieved in  10 iterations

     Forces acting on atoms (cartesian axes, Ry/au):

     atom    1 type  1   force =     0.00000000   -0.00208021    0.00000000
     atom    2 type  1   force =     0.00000000    0.00043132    0.00000000
     atom    3 type  1   force =     0.00000000   -0.00041409    0.00000000
     atom    4 type  1   force =     0.00000000   -0.00207853    0.00000000
     atom    5 type  1   force =     0.00000000    0.00043092    0.00000000
     atom    6 type  1   force =     0.00000000   -0.00041281    0.00000000
     atom    7 type  2   force =     0.00000000    0.00080002    0.00000000
     atom    8 type  2   force =     0.00000000    0.00079657    0.00000000
     atom    9 type  3   force =     0.00086991    0.00133200    0.00401844
     atom   10 type  3   force =     0.00326339   -0.00218990    0.00133547
     atom   11 type  3   force =    -0.00326339   -0.00218990   -0.00133547
     atom   12 type  3   force =    -0.00086991    0.00133200   -0.00401844
     atom   13 type  3   force =    -0.00324788    0.00152199    0.00339272
     atom   14 type  3   force =     0.00324788    0.00152199   -0.00339272
     atom   15 type  3   force =     0.00089115    0.00134224    0.00405326
     atom   16 type  3   force =     0.00327697   -0.00223636    0.00134323
     atom   17 type  3   force =    -0.00327697   -0.00223636   -0.00134323
     atom   18 type  3   force =    -0.00089115    0.00134224   -0.00405326
     atom   19 type  3   force =    -0.00325319    0.00149343    0.00341013
     atom   20 type  3   force =     0.00325319    0.00149343   -0.00341013

     Total force =     0.015913     Total SCF correction =     0.000200


     Computing stress (Cartesian axis) and pressure

          total   stress  (Ry/bohr**3)                   (kbar)     P=       -4.75
  -0.00003553   0.00000000   0.00000242           -5.23        0.00        0.36
   0.00000000  -0.00003761   0.00000000            0.00       -5.53        0.00
   0.00000242   0.00000000  -0.00002365            0.36        0.00       -3.48


     Writing output data file ./pwscf.save/
 
     init_run     :      3.75s CPU      3.96s WALL (       1 calls)
     electrons    :     62.15s CPU     63.98s WALL (       1 calls)
     forces       :      1.83s CPU      1.87s WALL (       1 calls)
     stress       :     10.26s CPU     10.37s WALL (       1 calls)

     Called by init_run:
     wfcinit      :      1.64s CPU      1.72s WALL (       1 calls)
     potinit      :      0.70s CPU      0.72s WALL (       1 calls)
     hinit0       :      0.98s CPU      1.06s WALL (       1 calls)

     Called by electrons:
     c_bands      :     50.21s CPU     51.20s WALL (      11 calls)
     sum_band     :      8.92s CPU      9.29s WALL (      11 calls)
     v_of_rho     :      0.58s CPU      0.58s WALL (      11 calls)
     newd         :      1.46s CPU      1.70s WALL (      11 calls)
     PAW_pot      :      0.96s CPU      0.97s WALL (      11 calls)
     mix_rho      :      0.14s CPU      0.14s WALL (      11 calls)

     Called by c_bands:
     init_us_2    :      0.57s CPU      0.57s WALL (     100 calls)
     cegterg      :     46.69s CPU     47.64s WALL (      44 calls)

     Called by *egterg:
     cdiaghg      :      7.00s CPU      7.11s WALL (     236 calls)
     h_psi        :     26.68s CPU     27.22s WALL (     244 calls)
     s_psi        :      2.64s CPU      2.65s WALL (     244 calls)
     g_psi        :      0.11s CPU      0.11s WALL (     196 calls)

     Called by h_psi:
     h_psi:calbec :      2.89s CPU      2.91s WALL (     244 calls)
     vloc_psi     :     20.89s CPU     21.21s WALL (     244 calls)
     add_vuspsi   :      2.60s CPU      2.62s WALL (     244 calls)

     General routines
     calbec       :      5.89s CPU      5.91s WALL (     308 calls)
     fft          :      0.49s CPU      0.58s WALL (     167 calls)
     ffts         :      0.04s CPU      0.04s WALL (      22 calls)
     fftw         :     23.09s CPU     23.41s WALL (   37806 calls)
     interpolate  :      0.05s CPU      0.06s WALL (      11 calls)
 
     Parallel routines
     fft_scatt_xy :      3.73s CPU      3.77s WALL (   37995 calls)
     fft_scatt_yz :      9.75s CPU      9.89s WALL (   37995 calls)
 
     PWSCF        :   1m18.64s CPU   1m21.91s WALL

 
   This run was terminated on:  14:33: 4  26Jul2021            

=------------------------------------------------------------------------------=
   JOB DONE.
=------------------------------------------------------------------------------=
