
     Program PWSCF v.6.7MaX starts on  2Aug2021 at 17: 1:59 

     This program is part of the open-source Quantum ESPRESSO suite
     for quantum simulation of materials; please cite
         "P. Giannozzi et al., J. Phys.:Condens. Matter 21 395502 (2009);
         "P. Giannozzi et al., J. Phys.:Condens. Matter 29 465901 (2017);
          URL http://www.quantum-espresso.org", 
     in publications or presentations arising from this work. More details at
     http://www.quantum-espresso.org/quote

     Parallel version (MPI), running on    48 processors

     MPI processes distributed on     2 nodes
     K-points division:     npool     =       2
     R & G space division:  proc/nbgrp/npool/nimage =      24
     Waiting for input...
     Reading input from standard input
Warning: card &CELL ignored
Warning: card CELL_DYNAMICS             = 'BFGS', ignored
Warning: card PRESS                     = '0.0', ignored
Warning: card PRESS_CONV_THR            = '0.5', ignored
Warning: card / ignored
     Message from routine read_cards :
     DEPRECATED: no units specified in CELL_PARAMETERS card

     Current dimensions of program PWSCF are:
     Max number of different atomic species (ntypx) = 10
     Max number of k-points (npk) =  40000
     Max angular momentum in pseudopotentials (lmaxx) =  3
     Message from routine cell_base_init:
     DEPRECATED: use true lattice parameter, not A to a.u. conversion factor
 end of file reached, closing tag not found
     file Er.pbe-spdn-kjpaw_psl.1.0.0.UPF: wavefunction(s)  6S 5D renormalized
     file Br.pbe-dn-kjpaw_psl.1.0.0.UPF: wavefunction(s)  4S 4P 3D renormalized

     Subspace diagonalization in iterative solution of the eigenvalue problem:
     a serial algorithm will be used

     Found symmetry operation: I + ( -0.5000 -0.5000  0.0000)
     This is a supercell, fractional translations are disabled
     Message from routine setup:
     using ibrav=0 with symmetry is DISCOURAGED, use correct ibrav instead
     Message from routine divide_et_impera:
     suboptimal parallelization: some nodes have no k-points
 
     Parallelization info
     --------------------
     sticks:   dense  smooth     PW     G-vecs:    dense   smooth      PW
     Min         395     316     83                20763    14856    2019
     Max         397     317     84                20767    14859    2022
     Sum        9495    7603   2013               498349   356595   48495
 


     bravais-lattice index     =            0
     lattice parameter (alat)  =       1.8897  a.u.
     unit-cell volume          =    3688.3023 (a.u.)^3
     number of atoms/cell      =           20
     number of atomic types    =            3
     number of electrons       =       244.00
     number of Kohn-Sham states=          146
     kinetic-energy cutoff     =      80.0000  Ry
     charge density cutoff     =     400.0000  Ry
     scf convergence threshold =      1.0E-08
     mixing beta               =       0.4000
     number of iterations used =            8  plain     mixing
     Exchange-correlation= SLA  PW   PBX  PBC
                           (   1   4   3   4   0   0   0)

     celldm(1)=   1.889726  celldm(2)=   0.000000  celldm(3)=   0.000000
     celldm(4)=   0.000000  celldm(5)=   0.000000  celldm(6)=   0.000000

     crystal axes: (cart. coord. in units of alat)
               a(1) = (   6.967356   0.000000   0.000000 )  
               a(2) = (   0.000000  11.998880   0.000000 )  
               a(3) = (  -2.324723   0.000000   6.537643 )  

     reciprocal axes: (cart. coord. in units 2 pi/alat)
               b(1) = (  0.143526  0.000000  0.051037 )  
               b(2) = (  0.000000  0.083341  0.000000 )  
               b(3) = (  0.000000  0.000000  0.152960 )  


     PseudoPot. # 1 for Li read from file:
     /central/groups/SeeGroup/qe_pseudopotentials/Li.pbe-s-kjpaw_psl.1.0.0.UPF
     MD5 check sum: cc502796ee09d8b62ac346ee26e59beb
     Pseudo is Projector augmented-wave, Zval =  3.0
     Generated using &quot;atomic&quot; code by A. Dal Corso  v.6.3
     Shape of augmentation charge: PSQ
     Using radial grid of 1017 points,  4 beta functions with: 
                l(1) =   0
                l(2) =   0
                l(3) =   1
                l(4) =   1
     Q(r) pseudized with 0 coefficients 


     PseudoPot. # 2 for Er read from file:
     /central/groups/SeeGroup/qe_pseudopotentials/Er.pbe-spdn-kjpaw_psl.1.0.0.UPF
     MD5 check sum: a923254af2aef992cff3e18bc73f2922
     Pseudo is Projector augmented-wave + core cor, Zval = 11.0
     Generated using &quot;atomic&quot; code by A. Dal Corso  v.6.2.2
     Shape of augmentation charge: PSQ
     Using radial grid of 1267 points,  6 beta functions with: 
                l(1) =   0
                l(2) =   0
                l(3) =   1
                l(4) =   1
                l(5) =   2
                l(6) =   2
     Q(r) pseudized with 0 coefficients 


     PseudoPot. # 3 for Br read from file:
     /central/groups/SeeGroup/qe_pseudopotentials/Br.pbe-dn-kjpaw_psl.1.0.0.UPF
     MD5 check sum: 4ca4ebabfd6065c7bb707b2ebe99e9b3
     Pseudo is Projector augmented-wave + core cor, Zval = 17.0
     Generated using &quot;atomic&quot; code by A. Dal Corso  v.6.3
     Shape of augmentation charge: PSQ
     Using radial grid of 1213 points,  6 beta functions with: 
                l(1) =   0
                l(2) =   0
                l(3) =   1
                l(4) =   1
                l(5) =   2
                l(6) =   2
     Q(r) pseudized with 0 coefficients 


     atomic species   valence    mass     pseudopotential
        Li             3.00     6.94100     Li( 1.00)
        Er            11.00   167.25900     Er( 1.00)
        Br            17.00    79.90400     Br( 1.00)

      2 Sym. Ops. (no inversion) found



   Cartesian axes

     site n.     atom                  positions (alat units)
         1           Li  tau(   1) = (   3.4836780   9.9564306   0.0000000  )
         2           Li  tau(   2) = (   3.4836780   2.0173957   0.0000000  )
         3           Li  tau(   3) = (   2.3213165   7.8846440   3.2688215  )
         4           Li  tau(   4) = (   0.0000000   3.9569906   0.0000000  )
         5           Li  tau(   5) = (   0.0000000   8.0168357   0.0000000  )
         6           Li  tau(   6) = (  -1.1623615   1.8852040   3.2688215  )
         7           Er  tau(   7) = (   3.4836780   5.9699947   0.0000000  )
         8           Er  tau(   8) = (   0.0000000  11.9694347   0.0000000  )
         9           Br  tau(   9) = (   3.4471523   9.9581465   5.0158758  )
        10           Br  tau(  10) = (   3.5847273   1.9854607   4.9258002  )
        11           Br  tau(  11) = (   1.0579057   1.9854607   1.6118428  )
        12           Br  tau(  12) = (   1.1954807   9.9581465   1.5217672  )
        13           Br  tau(  13) = (  -0.0150075   0.0698395   4.9769442  )
        14           Br  tau(  14) = (   4.6576405   0.0698395   1.5606988  )
        15           Br  tau(  15) = (  -0.0365257   3.9587065   5.0158758  )
        16           Br  tau(  16) = (   0.1010493   7.9849007   4.9258002  )
        17           Br  tau(  17) = (   4.5415837   7.9849007   1.6118428  )
        18           Br  tau(  18) = (   4.6791587   3.9587065   1.5217672  )
        19           Br  tau(  19) = (   3.4686705   6.0692795   4.9769442  )
        20           Br  tau(  20) = (   1.1739625   6.0692795   1.5606988  )

     number of k points=     1  Fermi-Dirac smearing, width (Ry)=  0.0070
                       cart. coord. in units 2pi/alat
        k(    1) = (   0.0000000   0.0000000   0.0000000), wk =   2.0000000

     Dense  grid:   498349 G-vectors     FFT dimensions: (  90, 150,  90)

     Smooth grid:   356595 G-vectors     FFT dimensions: (  75, 135,  75)

     Estimated max dynamical RAM per process >      66.07 MB

     Estimated total dynamical RAM >       3.10 GB

     Initial potential from superposition of free atoms

     starting charge  243.93496, renormalised to  244.00000
     Starting wfcs are  164 randomized atomic wfcs
     Checking if some PAW data can be deallocated... 

     total cpu time spent up to now is        2.7 secs

     Self-consistent Calculation

     iteration #  1     ecut=    80.00 Ry     beta= 0.40
     Davidson diagonalization with overlap
     ethr =  1.00E-02,  avg # of iterations =  6.0

     Threshold (ethr) on eigenvalues was too large:
     Diagonalizing with lowered threshold

     Davidson diagonalization with overlap
     ethr =  1.25E-04,  avg # of iterations =  6.0

     total cpu time spent up to now is        5.3 secs

     total energy              =   -6740.45108810 Ry
     estimated scf accuracy    <       0.30654944 Ry

     iteration #  2     ecut=    80.00 Ry     beta= 0.40
     Davidson diagonalization with overlap
     ethr =  1.26E-04,  avg # of iterations =  2.0

     total cpu time spent up to now is        6.6 secs

     total energy              =   -6740.47893350 Ry
     estimated scf accuracy    <       0.04320261 Ry

     iteration #  3     ecut=    80.00 Ry     beta= 0.40
     Davidson diagonalization with overlap
     ethr =  1.77E-05,  avg # of iterations = 13.0

     total cpu time spent up to now is        8.4 secs

     total energy              =   -6740.48455902 Ry
     estimated scf accuracy    <       0.00594593 Ry

     iteration #  4     ecut=    80.00 Ry     beta= 0.40
     Davidson diagonalization with overlap
     ethr =  2.44E-06,  avg # of iterations =  7.0

     total cpu time spent up to now is        9.8 secs

     total energy              =   -6740.48529484 Ry
     estimated scf accuracy    <       0.00082053 Ry

     iteration #  5     ecut=    80.00 Ry     beta= 0.40
     Davidson diagonalization with overlap
     ethr =  3.36E-07,  avg # of iterations =  2.0

     total cpu time spent up to now is       11.0 secs

     total energy              =   -6740.48543513 Ry
     estimated scf accuracy    <       0.00016949 Ry

     iteration #  6     ecut=    80.00 Ry     beta= 0.40
     Davidson diagonalization with overlap
     ethr =  6.95E-08,  avg # of iterations =  2.0

     total cpu time spent up to now is       12.2 secs

     total energy              =   -6740.48545213 Ry
     estimated scf accuracy    <       0.00003035 Ry

     iteration #  7     ecut=    80.00 Ry     beta= 0.40
     Davidson diagonalization with overlap
     ethr =  1.24E-08,  avg # of iterations =  2.0

     total cpu time spent up to now is       13.4 secs

     total energy              =   -6740.48545362 Ry
     estimated scf accuracy    <       0.00000118 Ry

     iteration #  8     ecut=    80.00 Ry     beta= 0.40
     Davidson diagonalization with overlap
     ethr =  4.82E-10,  avg # of iterations =  2.0

     total cpu time spent up to now is       14.6 secs

     total energy              =   -6740.48545377 Ry
     estimated scf accuracy    <       0.00000010 Ry

     iteration #  9     ecut=    80.00 Ry     beta= 0.40
     Davidson diagonalization with overlap
     ethr =  4.22E-11,  avg # of iterations =  2.0

     total cpu time spent up to now is       15.8 secs

     End of self-consistent calculation

          k = 0.0000 0.0000 0.0000 ( 44625 PWs)   bands (ev):

   -56.2094 -56.2094 -56.2094 -56.2094 -56.2073 -56.2073 -56.2073 -56.2073
   -56.1814 -56.1814 -56.1814 -56.1814 -56.1778 -56.1778 -56.1778 -56.1778
   -56.1706 -56.1706 -56.1705 -56.1705 -56.1696 -56.1695 -56.1695 -56.1695
   -56.1628 -56.1627 -56.1627 -56.1627 -56.1585 -56.1584 -56.1584 -56.1584
   -56.1569 -56.1569 -56.1568 -56.1568 -56.1519 -56.1518 -56.1518 -56.1518
   -56.1421 -56.1420 -56.1420 -56.1420 -56.1266 -56.1266 -56.1266 -56.1266
   -56.1248 -56.1248 -56.1248 -56.1248 -56.1178 -56.1177 -56.1177 -56.1177
   -56.1168 -56.1168 -56.1167 -56.1167 -46.9247 -46.9247 -42.0975 -42.0975
   -41.8265 -41.8265 -41.7655 -41.7655 -20.7635 -20.7635 -20.7442 -20.7441
   -20.7373 -20.7370 -10.6797 -10.4956 -10.3519 -10.2411 -10.2303 -10.2212
   -10.1995 -10.1960 -10.1835 -10.1161 -10.1097 -10.0889  -0.1363  -0.1263
     0.2544   0.2823   0.2929   0.4326   0.4789   0.6447   0.7054   0.7729
     0.8825   0.8873   0.8966   1.0360   1.1482   1.2789   1.2820   1.2823
     1.3035   1.5089   1.5535   1.7190   1.7763   1.9735   2.0163   2.0573
     2.0938   2.1073   2.2290   2.2821   2.3661   2.5055   2.5516   2.5691
     2.6092   2.6103   7.0616   7.3159   7.4651   7.4773   7.4803   7.5378
     7.5704   8.7357   8.7677   8.8202   9.1335   9.1807   9.3750   9.4096
     9.5066   9.7482   9.9559  10.3352  10.3438  10.3872  10.6899  10.8802
    10.9676  11.1219

     the Fermi energy is     4.8983 ev

!    total energy              =   -6740.48545380 Ry

     total all-electron energy =   -114993.501412 Ry
     estimated scf accuracy    <          9.1E-09 Ry
     smearing contrib. (-TS)   =      -0.00000000 Ry
     internal energy E=F+TS    =   -6740.48545380 Ry

     The total energy is F=E-TS. E is the sum of the following terms:
     one-electron contribution =   -3516.43775292 Ry
     hartree contribution      =    1688.67005430 Ry
     xc contribution           =    -503.29586743 Ry
     ewald contribution        =   -1690.68325647 Ry
     one-center paw contrib.   =   -2718.73863129 Ry

     convergence has been achieved in   9 iterations

     Forces acting on atoms (cartesian axes, Ry/au):

     atom    1 type  1   force =     0.00000000   -0.00196705    0.00000000
     atom    2 type  1   force =     0.00000000    0.00035589    0.00000000
     atom    3 type  1   force =     0.00000000   -0.00155948    0.00000000
     atom    4 type  1   force =     0.00000000   -0.00196411    0.00000000
     atom    5 type  1   force =     0.00000000    0.00035854    0.00000000
     atom    6 type  1   force =     0.00000000   -0.00156065    0.00000000
     atom    7 type  2   force =     0.00000000   -0.00013839    0.00000000
     atom    8 type  2   force =     0.00000000   -0.00013838    0.00000000
     atom    9 type  3   force =     0.00032028    0.00566065    0.00696240
     atom   10 type  3   force =     0.00566623   -0.00184822    0.00174339
     atom   11 type  3   force =    -0.00566623   -0.00184822   -0.00174339
     atom   12 type  3   force =    -0.00032028    0.00566065   -0.00696240
     atom   13 type  3   force =    -0.00424428   -0.00215998    0.00531684
     atom   14 type  3   force =     0.00424428   -0.00215998   -0.00531684
     atom   15 type  3   force =     0.00033509    0.00564462    0.00700983
     atom   16 type  3   force =     0.00566624   -0.00185565    0.00176545
     atom   17 type  3   force =    -0.00566624   -0.00185565   -0.00176545
     atom   18 type  3   force =    -0.00033509    0.00564462   -0.00700983
     atom   19 type  3   force =    -0.00421071   -0.00213461    0.00534953
     atom   20 type  3   force =     0.00421071   -0.00213461   -0.00534953

     Total force =     0.026354     Total SCF correction =     0.000311


     Computing stress (Cartesian axis) and pressure

          total   stress  (Ry/bohr**3)                   (kbar)     P=       -2.49
  -0.00006473   0.00000000   0.00008607           -9.52        0.00       12.66
   0.00000000   0.00000619   0.00000000            0.00        0.91        0.00
   0.00008607   0.00000000   0.00000772           12.66        0.00        1.14


     Writing output data file ./pwscf.save/
 
     init_run     :      2.04s CPU      2.11s WALL (       1 calls)
     electrons    :     12.93s CPU     13.26s WALL (       1 calls)
     forces       :      0.98s CPU      0.98s WALL (       1 calls)
     stress       :      3.25s CPU      3.26s WALL (       1 calls)

     Called by init_run:
     wfcinit      :      0.30s CPU      0.32s WALL (       1 calls)
     potinit      :      0.77s CPU      0.79s WALL (       1 calls)
     hinit0       :      0.64s CPU      0.64s WALL (       1 calls)

     Called by electrons:
     c_bands      :      8.46s CPU      8.54s WALL (      10 calls)
     sum_band     :      2.38s CPU      2.42s WALL (      10 calls)
     v_of_rho     :      0.37s CPU      0.38s WALL (      10 calls)
     newd         :      0.96s CPU      0.98s WALL (      10 calls)
     PAW_pot      :      0.83s CPU      0.84s WALL (      10 calls)
     mix_rho      :      0.08s CPU      0.08s WALL (      10 calls)

     Called by c_bands:
     init_us_2    :      0.08s CPU      0.08s WALL (      21 calls)
     cegterg      :      8.10s CPU      8.18s WALL (      10 calls)

     Called by *egterg:
     cdiaghg      :      1.53s CPU      1.54s WALL (      53 calls)
     h_psi        :      4.62s CPU      4.68s WALL (      55 calls)
     s_psi        :      0.41s CPU      0.42s WALL (      55 calls)
     g_psi        :      0.02s CPU      0.02s WALL (      44 calls)

     Called by h_psi:
     h_psi:calbec :      0.45s CPU      0.45s WALL (      55 calls)
     vloc_psi     :      3.71s CPU      3.76s WALL (      55 calls)
     add_vuspsi   :      0.41s CPU      0.42s WALL (      55 calls)

     General routines
     calbec       :      0.69s CPU      0.69s WALL (      70 calls)
     fft          :      0.26s CPU      0.27s WALL (     154 calls)
     ffts         :      0.06s CPU      0.06s WALL (      20 calls)
     fftw         :      4.14s CPU      4.20s WALL (    8604 calls)
     interpolate  :      0.07s CPU      0.07s WALL (      10 calls)
 
     Parallel routines
     fft_scatt_xy :      0.54s CPU      0.55s WALL (    8778 calls)
     fft_scatt_yz :      1.30s CPU      1.32s WALL (    8778 calls)
 
     PWSCF        :     19.86s CPU     20.55s WALL

 
   This run was terminated on:  17: 2:19   2Aug2021            

=------------------------------------------------------------------------------=
   JOB DONE.
=------------------------------------------------------------------------------=
