
     Program PWSCF v.6.7MaX starts on  2Aug2021 at 17:33: 4 

     This program is part of the open-source Quantum ESPRESSO suite
     for quantum simulation of materials; please cite
         "P. Giannozzi et al., J. Phys.:Condens. Matter 21 395502 (2009);
         "P. Giannozzi et al., J. Phys.:Condens. Matter 29 465901 (2017);
          URL http://www.quantum-espresso.org", 
     in publications or presentations arising from this work. More details at
     http://www.quantum-espresso.org/quote

     Parallel version (MPI), running on    48 processors

     MPI processes distributed on     2 nodes
     K-points division:     npool     =       2
     R & G space division:  proc/nbgrp/npool/nimage =      24
     Waiting for input...
     Reading input from standard input
Warning: card &CELL ignored
Warning: card CELL_DYNAMICS             = 'BFGS', ignored
Warning: card PRESS                     = '0.0', ignored
Warning: card PRESS_CONV_THR            = '0.5', ignored
Warning: card / ignored
     Message from routine read_cards :
     DEPRECATED: no units specified in CELL_PARAMETERS card

     Current dimensions of program PWSCF are:
     Max number of different atomic species (ntypx) = 10
     Max number of k-points (npk) =  40000
     Max angular momentum in pseudopotentials (lmaxx) =  3
     Message from routine cell_base_init:
     DEPRECATED: use true lattice parameter, not A to a.u. conversion factor
 end of file reached, closing tag not found
     file Er.pbe-spdn-kjpaw_psl.1.0.0.UPF: wavefunction(s)  6S 5D renormalized
     file Br.pbe-dn-kjpaw_psl.1.0.0.UPF: wavefunction(s)  4S 4P 3D renormalized

     Subspace diagonalization in iterative solution of the eigenvalue problem:
     a serial algorithm will be used

     Found symmetry operation: I + ( -0.5000 -0.5000  0.0000)
     This is a supercell, fractional translations are disabled
     Message from routine setup:
     using ibrav=0 with symmetry is DISCOURAGED, use correct ibrav instead
 
     Parallelization info
     --------------------
     sticks:   dense  smooth     PW     G-vecs:    dense   smooth      PW
     Min         494     395    107                29013    20763    2942
     Max         496     396    108                29014    20766    2945
     Sum       11877    9495   2581               696327   498349   70633
 


     bravais-lattice index     =            0
     lattice parameter (alat)  =       1.8897  a.u.
     unit-cell volume          =    3688.3023 (a.u.)^3
     number of atoms/cell      =           20
     number of atomic types    =            3
     number of electrons       =       244.00
     number of Kohn-Sham states=          146
     kinetic-energy cutoff     =     100.0000  Ry
     charge density cutoff     =     500.0000  Ry
     scf convergence threshold =      1.0E-08
     mixing beta               =       0.4000
     number of iterations used =            8  plain     mixing
     Exchange-correlation= SLA  PW   PBX  PBC
                           (   1   4   3   4   0   0   0)

     celldm(1)=   1.889726  celldm(2)=   0.000000  celldm(3)=   0.000000
     celldm(4)=   0.000000  celldm(5)=   0.000000  celldm(6)=   0.000000

     crystal axes: (cart. coord. in units of alat)
               a(1) = (   6.967356   0.000000   0.000000 )  
               a(2) = (   0.000000  11.998880   0.000000 )  
               a(3) = (  -2.324723   0.000000   6.537643 )  

     reciprocal axes: (cart. coord. in units 2 pi/alat)
               b(1) = (  0.143526  0.000000  0.051037 )  
               b(2) = (  0.000000  0.083341  0.000000 )  
               b(3) = (  0.000000  0.000000  0.152960 )  


     PseudoPot. # 1 for Li read from file:
     /central/groups/SeeGroup/qe_pseudopotentials/Li.pbe-s-kjpaw_psl.1.0.0.UPF
     MD5 check sum: cc502796ee09d8b62ac346ee26e59beb
     Pseudo is Projector augmented-wave, Zval =  3.0
     Generated using &quot;atomic&quot; code by A. Dal Corso  v.6.3
     Shape of augmentation charge: PSQ
     Using radial grid of 1017 points,  4 beta functions with: 
                l(1) =   0
                l(2) =   0
                l(3) =   1
                l(4) =   1
     Q(r) pseudized with 0 coefficients 


     PseudoPot. # 2 for Er read from file:
     /central/groups/SeeGroup/qe_pseudopotentials/Er.pbe-spdn-kjpaw_psl.1.0.0.UPF
     MD5 check sum: a923254af2aef992cff3e18bc73f2922
     Pseudo is Projector augmented-wave + core cor, Zval = 11.0
     Generated using &quot;atomic&quot; code by A. Dal Corso  v.6.2.2
     Shape of augmentation charge: PSQ
     Using radial grid of 1267 points,  6 beta functions with: 
                l(1) =   0
                l(2) =   0
                l(3) =   1
                l(4) =   1
                l(5) =   2
                l(6) =   2
     Q(r) pseudized with 0 coefficients 


     PseudoPot. # 3 for Br read from file:
     /central/groups/SeeGroup/qe_pseudopotentials/Br.pbe-dn-kjpaw_psl.1.0.0.UPF
     MD5 check sum: 4ca4ebabfd6065c7bb707b2ebe99e9b3
     Pseudo is Projector augmented-wave + core cor, Zval = 17.0
     Generated using &quot;atomic&quot; code by A. Dal Corso  v.6.3
     Shape of augmentation charge: PSQ
     Using radial grid of 1213 points,  6 beta functions with: 
                l(1) =   0
                l(2) =   0
                l(3) =   1
                l(4) =   1
                l(5) =   2
                l(6) =   2
     Q(r) pseudized with 0 coefficients 


     atomic species   valence    mass     pseudopotential
        Li             3.00     6.94100     Li( 1.00)
        Er            11.00   167.25900     Er( 1.00)
        Br            17.00    79.90400     Br( 1.00)

      2 Sym. Ops. (no inversion) found



   Cartesian axes

     site n.     atom                  positions (alat units)
         1           Li  tau(   1) = (   3.4836780   9.9564306   0.0000000  )
         2           Li  tau(   2) = (   3.4836780   2.0173957   0.0000000  )
         3           Li  tau(   3) = (   2.3213165   7.8846440   3.2688215  )
         4           Li  tau(   4) = (   0.0000000   3.9569906   0.0000000  )
         5           Li  tau(   5) = (   0.0000000   8.0168357   0.0000000  )
         6           Li  tau(   6) = (  -1.1623615   1.8852040   3.2688215  )
         7           Er  tau(   7) = (   3.4836780   5.9699947   0.0000000  )
         8           Er  tau(   8) = (   0.0000000  11.9694347   0.0000000  )
         9           Br  tau(   9) = (   3.4471523   9.9581465   5.0158758  )
        10           Br  tau(  10) = (   3.5847273   1.9854607   4.9258002  )
        11           Br  tau(  11) = (   1.0579057   1.9854607   1.6118428  )
        12           Br  tau(  12) = (   1.1954807   9.9581465   1.5217672  )
        13           Br  tau(  13) = (  -0.0150075   0.0698395   4.9769442  )
        14           Br  tau(  14) = (   4.6576405   0.0698395   1.5606988  )
        15           Br  tau(  15) = (  -0.0365257   3.9587065   5.0158758  )
        16           Br  tau(  16) = (   0.1010493   7.9849007   4.9258002  )
        17           Br  tau(  17) = (   4.5415837   7.9849007   1.6118428  )
        18           Br  tau(  18) = (   4.6791587   3.9587065   1.5217672  )
        19           Br  tau(  19) = (   3.4686705   6.0692795   4.9769442  )
        20           Br  tau(  20) = (   1.1739625   6.0692795   1.5606988  )

     number of k points=    40  Fermi-Dirac smearing, width (Ry)=  0.0070
                       cart. coord. in units 2pi/alat
        k(    1) = (   0.0000000   0.0000000   0.0000000), wk =   0.0185185
        k(    2) = (   0.0000000   0.0000000   0.0254934), wk =   0.0370370
        k(    3) = (   0.0000000   0.0000000   0.0509868), wk =   0.0370370
        k(    4) = (   0.0000000   0.0000000  -0.0764802), wk =   0.0185185
        k(    5) = (   0.0000000   0.0277804   0.0000000), wk =   0.0370370
        k(    6) = (   0.0000000   0.0277804   0.0254934), wk =   0.0740741
        k(    7) = (   0.0000000   0.0277804   0.0509868), wk =   0.0740741
        k(    8) = (   0.0000000   0.0277804  -0.0764802), wk =   0.0370370
        k(    9) = (   0.0239211   0.0000000   0.0085061), wk =   0.0370370
        k(   10) = (   0.0239211   0.0000000   0.0339995), wk =   0.0370370
        k(   11) = (   0.0239211   0.0000000   0.0594929), wk =   0.0370370
        k(   12) = (   0.0239211   0.0000000  -0.0679741), wk =   0.0370370
        k(   13) = (   0.0239211   0.0000000  -0.0424807), wk =   0.0370370
        k(   14) = (   0.0239211   0.0000000  -0.0169873), wk =   0.0370370
        k(   15) = (   0.0239211   0.0277804   0.0085061), wk =   0.0740741
        k(   16) = (   0.0239211   0.0277804   0.0339995), wk =   0.0740741
        k(   17) = (   0.0239211   0.0277804   0.0594929), wk =   0.0740741
        k(   18) = (   0.0239211   0.0277804  -0.0679741), wk =   0.0740741
        k(   19) = (   0.0239211   0.0277804  -0.0424807), wk =   0.0740741
        k(   20) = (   0.0239211   0.0277804  -0.0169873), wk =   0.0740741
        k(   21) = (   0.0478422   0.0000000   0.0170122), wk =   0.0370370
        k(   22) = (   0.0478422   0.0000000   0.0425056), wk =   0.0370370
        k(   23) = (   0.0478422   0.0000000   0.0679990), wk =   0.0370370
        k(   24) = (   0.0478422   0.0000000  -0.0594680), wk =   0.0370370
        k(   25) = (   0.0478422   0.0000000  -0.0339746), wk =   0.0370370
        k(   26) = (   0.0478422   0.0000000  -0.0084812), wk =   0.0370370
        k(   27) = (   0.0478422   0.0277804   0.0170122), wk =   0.0740741
        k(   28) = (   0.0478422   0.0277804   0.0425056), wk =   0.0740741
        k(   29) = (   0.0478422   0.0277804   0.0679990), wk =   0.0740741
        k(   30) = (   0.0478422   0.0277804  -0.0594680), wk =   0.0740741
        k(   31) = (   0.0478422   0.0277804  -0.0339746), wk =   0.0740741
        k(   32) = (   0.0478422   0.0277804  -0.0084812), wk =   0.0740741
        k(   33) = (  -0.0717632   0.0000000  -0.0255183), wk =   0.0185185
        k(   34) = (  -0.0717632   0.0000000  -0.0000249), wk =   0.0370370
        k(   35) = (  -0.0717632   0.0000000   0.0254685), wk =   0.0370370
        k(   36) = (  -0.0717632   0.0000000  -0.1019985), wk =   0.0185185
        k(   37) = (  -0.0717632   0.0277804  -0.0255183), wk =   0.0370370
        k(   38) = (  -0.0717632   0.0277804  -0.0000249), wk =   0.0740741
        k(   39) = (  -0.0717632   0.0277804   0.0254685), wk =   0.0740741
        k(   40) = (  -0.0717632   0.0277804  -0.1019985), wk =   0.0370370

     Dense  grid:   696327 G-vectors     FFT dimensions: (  96, 162,  96)

     Smooth grid:   498349 G-vectors     FFT dimensions: (  90, 150,  90)

     Estimated max dynamical RAM per process >     205.68 MB

     Estimated total dynamical RAM >       9.64 GB

     Initial potential from superposition of free atoms

     starting charge  243.93496, renormalised to  244.00000
     Starting wfcs are  164 randomized atomic wfcs
     Checking if some PAW data can be deallocated... 

     total cpu time spent up to now is       22.2 secs

     Self-consistent Calculation

     iteration #  1     ecut=   100.00 Ry     beta= 0.40
     Davidson diagonalization with overlap
     ethr =  1.00E-02,  avg # of iterations =  5.3

     Threshold (ethr) on eigenvalues was too large:
     Diagonalizing with lowered threshold

     Davidson diagonalization with overlap
     ethr =  1.17E-04,  avg # of iterations =  9.7

     total cpu time spent up to now is      144.3 secs

     total energy              =   -6740.52452679 Ry
     estimated scf accuracy    <       0.28225370 Ry

     iteration #  2     ecut=   100.00 Ry     beta= 0.40
     Davidson diagonalization with overlap
     ethr =  1.16E-04,  avg # of iterations =  2.0

     total cpu time spent up to now is      190.0 secs

     total energy              =   -6740.55054155 Ry
     estimated scf accuracy    <       0.03927093 Ry

     iteration #  3     ecut=   100.00 Ry     beta= 0.40
     Davidson diagonalization with overlap
     ethr =  1.61E-05,  avg # of iterations =  7.6

     total cpu time spent up to now is      253.2 secs

     total energy              =   -6740.55561405 Ry
     estimated scf accuracy    <       0.00552778 Ry

     iteration #  4     ecut=   100.00 Ry     beta= 0.40
     Davidson diagonalization with overlap
     c_bands:  1 eigenvalues not converged
     c_bands:  1 eigenvalues not converged
     ethr =  2.27E-06,  avg # of iterations =  9.6

     total cpu time spent up to now is      319.5 secs

     total energy              =   -6740.55629166 Ry
     estimated scf accuracy    <       0.00075750 Ry

     iteration #  5     ecut=   100.00 Ry     beta= 0.40
     Davidson diagonalization with overlap
     ethr =  3.10E-07,  avg # of iterations =  2.1

     total cpu time spent up to now is      363.5 secs

     total energy              =   -6740.55642046 Ry
     estimated scf accuracy    <       0.00016213 Ry

     iteration #  6     ecut=   100.00 Ry     beta= 0.40
     Davidson diagonalization with overlap
     ethr =  6.64E-08,  avg # of iterations =  2.0

     total cpu time spent up to now is      407.5 secs

     total energy              =   -6740.55643702 Ry
     estimated scf accuracy    <       0.00003127 Ry

     iteration #  7     ecut=   100.00 Ry     beta= 0.40
     Davidson diagonalization with overlap
     ethr =  1.28E-08,  avg # of iterations =  2.0

     total cpu time spent up to now is      452.0 secs

     total energy              =   -6740.55643861 Ry
     estimated scf accuracy    <       0.00000113 Ry

     iteration #  8     ecut=   100.00 Ry     beta= 0.40
     Davidson diagonalization with overlap
     ethr =  4.62E-10,  avg # of iterations =  2.0

     total cpu time spent up to now is      499.5 secs

     total energy              =   -6740.55643873 Ry
     estimated scf accuracy    <       0.00000012 Ry

     iteration #  9     ecut=   100.00 Ry     beta= 0.40
     Davidson diagonalization with overlap
     ethr =  4.82E-11,  avg # of iterations =  2.0

     total cpu time spent up to now is      544.7 secs

     End of self-consistent calculation

          k = 0.0000 0.0000 0.0000 ( 62259 PWs)   bands (ev):

   -56.2784 -56.2784 -56.2784 -56.2784 -56.2755 -56.2755 -56.2755 -56.2755
   -56.2607 -56.2607 -56.2607 -56.2607 -56.2556 -56.2556 -56.2555 -56.2555
   -56.2531 -56.2531 -56.2531 -56.2531 -56.2395 -56.2395 -56.2395 -56.2395
   -56.2274 -56.2274 -56.2274 -56.2274 -56.2237 -56.2237 -56.2237 -56.2237
   -56.2127 -56.2127 -56.2127 -56.2127 -56.2098 -56.2098 -56.2098 -56.2098
   -56.1945 -56.1945 -56.1945 -56.1945 -56.1935 -56.1935 -56.1935 -56.1935
   -56.1927 -56.1926 -56.1926 -56.1926 -56.1865 -56.1865 -56.1865 -56.1865
   -56.1836 -56.1836 -56.1835 -56.1835 -46.9320 -46.9320 -42.0671 -42.0671
   -41.7985 -41.7985 -41.7701 -41.7700 -20.7600 -20.7599 -20.7546 -20.7546
   -20.7545 -20.7543 -10.7220 -10.5410 -10.3950 -10.2885 -10.2787 -10.2694
   -10.2368 -10.2321 -10.2246 -10.1602 -10.1548 -10.1290  -0.1685  -0.1594
     0.2178   0.2441   0.2632   0.4074   0.4548   0.6220   0.6721   0.7409
     0.8620   0.8622   0.8729   0.9981   1.1249   1.2409   1.2640   1.2676
     1.2727   1.4826   1.5251   1.6949   1.7400   1.9378   1.9803   2.0166
     2.0551   2.0728   2.1869   2.2404   2.3320   2.4620   2.5278   2.5280
     2.5728   2.5790   7.0472   7.3027   7.4451   7.4652   7.4668   7.5185
     7.5473   8.7247   8.7423   8.8087   9.1067   9.1638   9.3652   9.3989
     9.4759   9.7239   9.9172  10.3106  10.3252  10.3770  10.6701  10.8571
    10.9490  11.1005

          k = 0.0000 0.0000 0.0255 ( 62252 PWs)   bands (ev):

   -56.2784 -56.2784 -56.2784 -56.2784 -56.2755 -56.2755 -56.2755 -56.2755
   -56.2607 -56.2607 -56.2607 -56.2607 -56.2556 -56.2556 -56.2555 -56.2555
   -56.2531 -56.2531 -56.2531 -56.2531 -56.2395 -56.2395 -56.2395 -56.2395
   -56.2274 -56.2274 -56.2274 -56.2274 -56.2237 -56.2237 -56.2237 -56.2237
   -56.2127 -56.2127 -56.2127 -56.2127 -56.2098 -56.2098 -56.2098 -56.2098
   -56.1945 -56.1945 -56.1945 -56.1945 -56.1935 -56.1935 -56.1935 -56.1935
   -56.1927 -56.1926 -56.1926 -56.1926 -56.1865 -56.1865 -56.1865 -56.1865
   -56.1836 -56.1836 -56.1835 -56.1835 -46.9320 -46.9320 -42.0671 -42.0671
   -41.7985 -41.7985 -41.7701 -41.7700 -20.7600 -20.7599 -20.7546 -20.7546
   -20.7545 -20.7543 -10.7005 -10.5247 -10.3861 -10.2910 -10.2853 -10.2831
   -10.2461 -10.2410 -10.2191 -10.1677 -10.1639 -10.1307  -0.1181  -0.0753
     0.2589   0.2607   0.2962   0.3641   0.4580   0.4954   0.6991   0.8111
     0.8392   0.8923   0.9841   1.0489   1.0847   1.1030   1.2408   1.3597
     1.3633   1.4448   1.4759   1.6696   1.7472   1.9587   1.9967   2.0226
     2.0403   2.1031   2.1733   2.2195   2.3081   2.3513   2.3611   2.5108
     2.5216   2.5224   7.1100   7.2914   7.3736   7.4293   7.4877   7.5355
     7.7788   8.7639   8.7920   8.9576   9.0887   9.1756   9.3142   9.3630
     9.6389   9.9848  10.0192  10.1191  10.3613  10.6067  10.6538  10.7329
    10.9816  11.1699

          k = 0.0000 0.0000 0.0510 ( 62289 PWs)   bands (ev):

   -56.2784 -56.2784 -56.2784 -56.2784 -56.2755 -56.2755 -56.2755 -56.2755
   -56.2607 -56.2607 -56.2607 -56.2607 -56.2556 -56.2556 -56.2555 -56.2555
   -56.2531 -56.2531 -56.2531 -56.2531 -56.2395 -56.2395 -56.2395 -56.2395
   -56.2274 -56.2274 -56.2274 -56.2274 -56.2237 -56.2237 -56.2237 -56.2237
   -56.2127 -56.2127 -56.2127 -56.2127 -56.2098 -56.2098 -56.2098 -56.2098
   -56.1945 -56.1945 -56.1945 -56.1945 -56.1935 -56.1935 -56.1935 -56.1935
   -56.1926 -56.1926 -56.1926 -56.1926 -56.1865 -56.1865 -56.1865 -56.1865
   -56.1836 -56.1836 -56.1835 -56.1835 -46.9320 -46.9320 -42.0671 -42.0671
   -41.7985 -41.7985 -41.7701 -41.7701 -20.7600 -20.7600 -20.7546 -20.7546
   -20.7545 -20.7543 -10.6473 -10.4848 -10.3631 -10.3411 -10.3028 -10.2867
   -10.2656 -10.2404 -10.2354 -10.1823 -10.1662 -10.1366  -0.0267   0.1032
     0.2246   0.2889   0.3598   0.4351   0.4795   0.5433   0.6881   0.7721
     0.8400   0.8932   0.9468   1.0690   1.0989   1.2136   1.3202   1.3486
     1.3974   1.4127   1.5327   1.5623   1.7642   1.8165   1.8967   1.9829
     2.0635   2.0651   2.0855   2.1320   2.1828   2.2705   2.3249   2.3835
     2.4756   2.4827   7.2182   7.2401   7.2557   7.3427   7.4915   7.5609
     8.3796   8.7119   8.9060   9.0055   9.1172   9.3891   9.5522   9.7070
     9.8238   9.9427  10.1171  10.2548  10.3964  10.6573  10.7184  10.8580
    10.8876  11.0142

          k = 0.0000 0.0000-0.0765 ( 62272 PWs)   bands (ev):

   -56.2784 -56.2784 -56.2784 -56.2784 -56.2755 -56.2755 -56.2755 -56.2755
   -56.2607 -56.2607 -56.2607 -56.2607 -56.2556 -56.2555 -56.2555 -56.2555
   -56.2531 -56.2531 -56.2531 -56.2531 -56.2395 -56.2395 -56.2395 -56.2395
   -56.2274 -56.2274 -56.2274 -56.2274 -56.2237 -56.2237 -56.2237 -56.2237
   -56.2127 -56.2127 -56.2127 -56.2127 -56.2098 -56.2098 -56.2098 -56.2098
   -56.1945 -56.1945 -56.1945 -56.1945 -56.1935 -56.1935 -56.1935 -56.1935
   -56.1926 -56.1926 -56.1926 -56.1926 -56.1865 -56.1865 -56.1865 -56.1865
   -56.1836 -56.1836 -56.1835 -56.1835 -46.9320 -46.9320 -42.0671 -42.0671
   -41.7985 -41.7985 -41.7701 -41.7701 -20.7600 -20.7600 -20.7546 -20.7546
   -20.7546 -20.7543 -10.6107 -10.4581 -10.3801 -10.3448 -10.3197 -10.2851
   -10.2728 -10.2581 -10.2409 -10.1830 -10.1633 -10.1422   0.0249   0.1834
     0.1908   0.2487   0.3938   0.4980   0.5827   0.6733   0.6853   0.7347
     0.7823   0.9490   0.9903   1.0445   1.0948   1.2084   1.2705   1.3601
     1.3881   1.4541   1.4661   1.5321   1.6688   1.7952   1.8867   1.8995
     1.9534   2.0695   2.1216   2.1329   2.1437   2.2874   2.2983   2.3345
     2.4566   2.4595   7.1906   7.2149   7.2501   7.3270   7.4872   7.5778
     8.6394   8.7929   8.9076   9.0791   9.1933   9.4469   9.8900   9.9484
     9.9576  10.0377  10.0407  10.1871  10.2478  10.3060  10.7758  10.8083
    10.9742  10.9877

          k = 0.0000 0.0278 0.0000 ( 62212 PWs)   bands (ev):

   -56.2784 -56.2784 -56.2784 -56.2784 -56.2755 -56.2755 -56.2755 -56.2755
   -56.2607 -56.2607 -56.2607 -56.2607 -56.2556 -56.2556 -56.2555 -56.2555
   -56.2531 -56.2531 -56.2531 -56.2531 -56.2395 -56.2395 -56.2395 -56.2395
   -56.2274 -56.2274 -56.2274 -56.2274 -56.2237 -56.2237 -56.2237 -56.2237
   -56.2127 -56.2127 -56.2127 -56.2127 -56.2098 -56.2098 -56.2098 -56.2098
   -56.1945 -56.1945 -56.1945 -56.1945 -56.1935 -56.1935 -56.1935 -56.1935
   -56.1927 -56.1927 -56.1926 -56.1926 -56.1865 -56.1865 -56.1865 -56.1865
   -56.1836 -56.1836 -56.1835 -56.1835 -46.9320 -46.9320 -42.0671 -42.0671
   -41.7985 -41.7985 -41.7701 -41.7700 -20.7600 -20.7599 -20.7546 -20.7545
   -20.7545 -20.7544 -10.6905 -10.6085 -10.3440 -10.3008 -10.2882 -10.2853
   -10.2085 -10.2075 -10.2028 -10.1735 -10.1692 -10.1535  -0.1387  -0.1328
     0.1254   0.1411   0.2995   0.3751   0.4821   0.5822   0.6664   0.7632
     0.7864   0.8436   1.0672   1.0954   1.1226   1.1388   1.2196   1.2794
     1.4767   1.5597   1.6786   1.6882   1.7424   1.8855   1.8976   1.9006
     2.0064   2.2013   2.2708   2.2953   2.2987   2.3069   2.4109   2.4746
     2.5372   2.5645   7.1694   7.3325   7.4621   7.4625   7.4649   7.4990
     7.7823   8.4480   8.8141   8.8995   9.0457   9.1353   9.3410   9.4011
     9.4616   9.7349  10.0926  10.1700  10.1944  10.3095  10.7508  10.8486
    11.1221  11.1305

          k = 0.0000 0.0278 0.0255 ( 62248 PWs)   bands (ev):

   -56.2784 -56.2784 -56.2784 -56.2784 -56.2755 -56.2755 -56.2755 -56.2755
   -56.2607 -56.2607 -56.2607 -56.2607 -56.2556 -56.2556 -56.2555 -56.2555
   -56.2531 -56.2531 -56.2531 -56.2531 -56.2395 -56.2395 -56.2395 -56.2395
   -56.2274 -56.2274 -56.2274 -56.2274 -56.2237 -56.2237 -56.2237 -56.2237
   -56.2127 -56.2127 -56.2127 -56.2127 -56.2098 -56.2098 -56.2098 -56.2098
   -56.1945 -56.1945 -56.1945 -56.1945 -56.1935 -56.1935 -56.1935 -56.1935
   -56.1927 -56.1926 -56.1926 -56.1926 -56.1865 -56.1865 -56.1865 -56.1865
   -56.1836 -56.1836 -56.1835 -56.1835 -46.9320 -46.9320 -42.0671 -42.0671
   -41.7985 -41.7985 -41.7701 -41.7700 -20.7600 -20.7599 -20.7546 -20.7545
   -20.7545 -20.7544 -10.6698 -10.5901 -10.3411 -10.3064 -10.2909 -10.2888
   -10.2282 -10.2164 -10.1926 -10.1828 -10.1813 -10.1508  -0.0925  -0.0716
     0.1865   0.1910   0.3271   0.3617   0.4801   0.5056   0.6123   0.6921
     0.8336   0.9697   1.0123   1.0923   1.1270   1.1913   1.2295   1.4272
     1.4691   1.5984   1.6023   1.6556   1.7121   1.8570   1.8983   1.9246
     2.0130   2.1181   2.1956   2.2256   2.3005   2.3126   2.3470   2.4513
     2.4763   2.4878   7.2287   7.3364   7.3780   7.4348   7.4480   7.4954
     8.0189   8.5552   8.8464   8.8802   9.1817   9.2376   9.3997   9.4553
     9.6147   9.8917   9.9600  10.0524  10.3885  10.5735  10.6480  10.6681
    10.9621  11.0857

          k = 0.0000 0.0278 0.0510 ( 62274 PWs)   bands (ev):

   -56.2784 -56.2784 -56.2784 -56.2784 -56.2755 -56.2755 -56.2755 -56.2755
   -56.2607 -56.2607 -56.2607 -56.2607 -56.2556 -56.2556 -56.2555 -56.2555
   -56.2531 -56.2531 -56.2531 -56.2531 -56.2395 -56.2395 -56.2395 -56.2395
   -56.2274 -56.2274 -56.2274 -56.2274 -56.2237 -56.2237 -56.2237 -56.2237
   -56.2127 -56.2127 -56.2127 -56.2127 -56.2098 -56.2098 -56.2098 -56.2098
   -56.1945 -56.1945 -56.1945 -56.1945 -56.1935 -56.1935 -56.1935 -56.1935
   -56.1926 -56.1926 -56.1926 -56.1926 -56.1865 -56.1865 -56.1865 -56.1865
   -56.1836 -56.1836 -56.1835 -56.1835 -46.9320 -46.9320 -42.0671 -42.0671
   -41.7985 -41.7985 -41.7701 -41.7701 -20.7600 -20.7600 -20.7546 -20.7546
   -20.7545 -20.7544 -10.6184 -10.5443 -10.3419 -10.3411 -10.3057 -10.2943
   -10.2397 -10.2272 -10.2131 -10.1860 -10.1853 -10.1550  -0.0076   0.0439
     0.2378   0.2746   0.3495   0.4020   0.5078   0.5174   0.6450   0.6515
     0.9102   0.9688   0.9977   1.0701   1.1566   1.2659   1.2953   1.4161
     1.4383   1.5518   1.5707   1.6483   1.7310   1.7604   1.8552   1.9192
     1.9412   2.0536   2.0813   2.1643   2.1812   2.2846   2.2982   2.3427
     2.3782   2.4625   7.2857   7.2863   7.3328   7.3645   7.4327   7.5093
     8.4715   8.6233   8.9322   9.0525   9.3117   9.4616   9.5311   9.7925
     9.8891   9.9538  10.1127  10.1357  10.3564  10.5051  10.5185  10.6508
    10.8878  11.0844

          k = 0.0000 0.0278-0.0765 ( 62280 PWs)   bands (ev):

   -56.2784 -56.2784 -56.2784 -56.2784 -56.2755 -56.2755 -56.2755 -56.2755
   -56.2607 -56.2607 -56.2607 -56.2607 -56.2556 -56.2555 -56.2555 -56.2555
   -56.2531 -56.2531 -56.2531 -56.2531 -56.2395 -56.2395 -56.2395 -56.2395
   -56.2274 -56.2274 -56.2274 -56.2274 -56.2237 -56.2237 -56.2237 -56.2237
   -56.2127 -56.2127 -56.2127 -56.2127 -56.2098 -56.2098 -56.2098 -56.2098
   -56.1945 -56.1945 -56.1945 -56.1945 -56.1935 -56.1935 -56.1935 -56.1935
   -56.1926 -56.1926 -56.1926 -56.1926 -56.1865 -56.1865 -56.1865 -56.1865
   -56.1836 -56.1836 -56.1835 -56.1835 -46.9320 -46.9320 -42.0671 -42.0671
   -41.7985 -41.7985 -41.7701 -41.7701 -20.7600 -20.7600 -20.7546 -20.7546
   -20.7545 -20.7544 -10.5828 -10.5120 -10.3756 -10.3595 -10.3081 -10.2925
   -10.2399 -10.2344 -10.2274 -10.1861 -10.1747 -10.1658   0.0358   0.0926
     0.2200   0.2527   0.3547   0.4250   0.5900   0.6395   0.7293   0.7359
     0.9420   0.9423   1.0083   1.0508   1.0722   1.2027   1.2960   1.3822
     1.4100   1.4657   1.5959   1.6035   1.6713   1.7825   1.9097   1.9184
     1.9300   1.9485   2.0476   2.1503   2.1914   2.2277   2.2422   2.3464
     2.3542   2.4337   7.2610   7.2683   7.2870   7.3922   7.4166   7.5331
     8.5974   8.6369   9.0673   9.2330   9.4446   9.5018   9.6857   9.9247
     9.9862   9.9933  10.0300  10.2040  10.3750  10.3842  10.5831  10.7971
    10.9983  11.0997

          k = 0.0239 0.0000 0.0085 ( 62235 PWs)   bands (ev):

   -56.2784 -56.2784 -56.2784 -56.2784 -56.2755 -56.2755 -56.2755 -56.2755
   -56.2607 -56.2607 -56.2607 -56.2607 -56.2556 -56.2556 -56.2555 -56.2555
   -56.2531 -56.2531 -56.2531 -56.2531 -56.2395 -56.2395 -56.2395 -56.2395
   -56.2274 -56.2274 -56.2274 -56.2274 -56.2237 -56.2237 -56.2237 -56.2237
   -56.2127 -56.2127 -56.2127 -56.2127 -56.2098 -56.2098 -56.2098 -56.2098
   -56.1945 -56.1945 -56.1945 -56.1945 -56.1935 -56.1935 -56.1935 -56.1935
   -56.1927 -56.1926 -56.1926 -56.1926 -56.1865 -56.1865 -56.1865 -56.1865
   -56.1836 -56.1836 -56.1835 -56.1835 -46.9320 -46.9320 -42.0671 -42.0671
   -41.7985 -41.7985 -41.7701 -41.7700 -20.7600 -20.7599 -20.7546 -20.7546
   -20.7546 -20.7543 -10.6966 -10.5234 -10.3864 -10.3045 -10.2938 -10.2695
   -10.2396 -10.2357 -10.2248 -10.1769 -10.1536 -10.1343  -0.1313  -0.0567
     0.2482   0.2511   0.3399   0.3548   0.4509   0.5581   0.7189   0.7297
     0.8587   0.9040   0.9484   0.9505   1.0355   1.0607   1.2965   1.3454
     1.4052   1.4824   1.6242   1.6931   1.7648   1.9122   1.9284   2.0156
     2.0264   2.1176   2.1273   2.2754   2.2760   2.3348   2.3627   2.5021
     2.5340   2.5468   7.1071   7.3646   7.3844   7.4248   7.4432   7.4871
     7.7815   8.8038   8.8120   8.8957   9.0675   9.1325   9.3175   9.4818
     9.6202   9.8913  10.0803  10.0873  10.3634  10.5898  10.6093  10.7624
    11.0329  11.1442

          k = 0.0239 0.0000 0.0340 ( 62277 PWs)   bands (ev):

   -56.2784 -56.2784 -56.2784 -56.2784 -56.2755 -56.2755 -56.2755 -56.2755
   -56.2607 -56.2607 -56.2607 -56.2607 -56.2556 -56.2556 -56.2555 -56.2555
   -56.2531 -56.2531 -56.2531 -56.2531 -56.2395 -56.2395 -56.2395 -56.2395
   -56.2274 -56.2274 -56.2274 -56.2274 -56.2237 -56.2237 -56.2237 -56.2237
   -56.2127 -56.2127 -56.2127 -56.2127 -56.2098 -56.2098 -56.2098 -56.2098
   -56.1945 -56.1945 -56.1945 -56.1945 -56.1935 -56.1935 -56.1935 -56.1935
   -56.1926 -56.1926 -56.1926 -56.1926 -56.1865 -56.1865 -56.1865 -56.1865
   -56.1836 -56.1836 -56.1835 -56.1835 -46.9320 -46.9320 -42.0671 -42.0671
   -41.7985 -41.7985 -41.7701 -41.7701 -20.7600 -20.7599 -20.7546 -20.7546
   -20.7546 -20.7543 -10.6639 -10.5003 -10.3753 -10.3206 -10.3046 -10.2766
   -10.2516 -10.2449 -10.2268 -10.1884 -10.1636 -10.1317   0.0239   0.0328
     0.2680   0.2895   0.3620   0.4021   0.4974   0.5174   0.7797   0.7832
     0.8376   0.8854   0.9777   1.0315   1.0640   1.1039   1.2143   1.2725
     1.3414   1.3661   1.6044   1.6347   1.8128   1.8138   1.9478   2.0081
     2.0504   2.1178   2.1415   2.1781   2.2430   2.2443   2.2532   2.3865
     2.4307   2.5070   7.2063   7.3112   7.3650   7.3854   7.4890   7.5157
     8.1714   8.7450   8.8658   8.9043   9.0130   9.2338   9.5202   9.5642
     9.9759  10.0220  10.0745  10.2976  10.4614  10.7326  10.8140  10.8931
    11.1208  11.1475

          k = 0.0239 0.0000 0.0595 ( 62273 PWs)   bands (ev):

   -56.2784 -56.2784 -56.2784 -56.2784 -56.2755 -56.2755 -56.2755 -56.2755
   -56.2607 -56.2607 -56.2607 -56.2607 -56.2556 -56.2555 -56.2555 -56.2555
   -56.2531 -56.2531 -56.2531 -56.2531 -56.2395 -56.2395 -56.2395 -56.2395
   -56.2274 -56.2274 -56.2274 -56.2274 -56.2237 -56.2237 -56.2237 -56.2237
   -56.2127 -56.2127 -56.2127 -56.2127 -56.2098 -56.2098 -56.2098 -56.2098
   -56.1945 -56.1945 -56.1945 -56.1945 -56.1935 -56.1935 -56.1935 -56.1935
   -56.1926 -56.1926 -56.1926 -56.1926 -56.1865 -56.1865 -56.1865 -56.1865
   -56.1836 -56.1836 -56.1835 -56.1835 -46.9320 -46.9320 -42.0671 -42.0671
   -41.7985 -41.7985 -41.7701 -41.7701 -20.7600 -20.7600 -20.7547 -20.7546
   -20.7546 -20.7543 -10.6094 -10.4600 -10.3562 -10.3560 -10.3243 -10.2794
   -10.2729 -10.2555 -10.2534 -10.1829 -10.1690 -10.1400   0.0601   0.1511
     0.1990   0.2627   0.4448   0.4759   0.5879   0.6082   0.6440   0.7377
     0.7930   0.8632   1.0027   1.0943   1.1017   1.2250   1.2675   1.2920
     1.3472   1.3897   1.5767   1.5795   1.7218   1.8707   1.9476   1.9574
     1.9705   2.0440   2.0580   2.1200   2.1593   2.2636   2.2814   2.3239
     2.3506   2.4890   7.1903   7.2412   7.3024   7.3390   7.4852   7.5329
     8.6299   8.6966   8.9815   9.0180   9.0672   9.6358   9.6646   9.7149
     9.7889  10.0291  10.1157  10.2535  10.2831  10.4350  10.6182  10.7927
    11.1533  11.1904

          k = 0.0239 0.0000-0.0680 ( 62273 PWs)   bands (ev):

   -56.2784 -56.2784 -56.2784 -56.2784 -56.2755 -56.2755 -56.2755 -56.2755
   -56.2607 -56.2607 -56.2607 -56.2607 -56.2556 -56.2556 -56.2555 -56.2555
   -56.2531 -56.2531 -56.2531 -56.2531 -56.2395 -56.2395 -56.2395 -56.2395
   -56.2274 -56.2274 -56.2274 -56.2274 -56.2237 -56.2237 -56.2237 -56.2237
   -56.2127 -56.2127 -56.2127 -56.2127 -56.2098 -56.2098 -56.2098 -56.2098
   -56.1945 -56.1945 -56.1945 -56.1945 -56.1935 -56.1935 -56.1935 -56.1935
   -56.1926 -56.1926 -56.1926 -56.1926 -56.1865 -56.1865 -56.1865 -56.1865
   -56.1836 -56.1836 -56.1835 -56.1835 -46.9320 -46.9320 -42.0671 -42.0671
   -41.7985 -41.7985 -41.7701 -41.7701 -20.7600 -20.7600 -20.7547 -20.7546
   -20.7546 -20.7543 -10.5940 -10.4456 -10.3733 -10.3466 -10.3157 -10.2938
   -10.2881 -10.2601 -10.2457 -10.1745 -10.1695 -10.1536   0.0149   0.0557
     0.2069   0.2486   0.4070   0.4360   0.5139   0.6391   0.6700   0.6998
     0.7326   0.8481   1.0468   1.1087   1.1242   1.2061   1.3758   1.3853
     1.4494   1.5397   1.5935   1.6334   1.7278   1.8494   1.8900   1.9266
     1.9572   1.9926   2.0669   2.1166   2.2253   2.2410   2.3056   2.3673
     2.3765   2.4670   7.1479   7.2212   7.2499   7.3069   7.4354   7.5201
     8.6746   8.7152   9.0312   9.1414   9.1522   9.4702   9.5442   9.7319
     9.8015   9.8765   9.9604  10.0639  10.1225  10.2860  10.4781  10.5235
    11.0848  11.0859

          k = 0.0239 0.0000-0.0425 ( 62269 PWs)   bands (ev):

   -56.2784 -56.2784 -56.2784 -56.2784 -56.2755 -56.2755 -56.2755 -56.2755
   -56.2607 -56.2607 -56.2607 -56.2607 -56.2556 -56.2556 -56.2555 -56.2555
   -56.2531 -56.2531 -56.2531 -56.2531 -56.2395 -56.2395 -56.2395 -56.2395
   -56.2274 -56.2274 -56.2274 -56.2274 -56.2237 -56.2237 -56.2237 -56.2237
   -56.2127 -56.2127 -56.2127 -56.2127 -56.2098 -56.2098 -56.2098 -56.2098
   -56.1945 -56.1945 -56.1945 -56.1945 -56.1935 -56.1935 -56.1935 -56.1935
   -56.1927 -56.1926 -56.1926 -56.1926 -56.1865 -56.1865 -56.1865 -56.1865
   -56.1836 -56.1836 -56.1835 -56.1835 -46.9320 -46.9320 -42.0671 -42.0671
   -41.7985 -41.7985 -41.7701 -41.7701 -20.7600 -20.7600 -20.7547 -20.7546
   -20.7546 -20.7543 -10.6431 -10.4808 -10.3604 -10.3294 -10.2989 -10.2858
   -10.2818 -10.2382 -10.2366 -10.1748 -10.1706 -10.1510  -0.0498  -0.0487
     0.2181   0.2482   0.3200   0.3607   0.4261   0.4581   0.6195   0.6850
     0.7692   0.8161   1.0507   1.1270   1.1523   1.3275   1.3307   1.4702
     1.5342   1.6127   1.6252   1.7134   1.7962   1.8214   1.8484   1.9266
     1.9761   2.0859   2.0869   2.1693   2.2921   2.3201   2.3375   2.4215
     2.4706   2.4764   7.1512   7.2197   7.2443   7.3201   7.4110   7.4836
     8.2351   8.8222   8.8682   8.9786   9.1911   9.3330   9.3795   9.6350
     9.7086   9.7165   9.8173  10.0248  10.1369  10.2950  10.3441  10.4070
    10.8539  11.1237

          k = 0.0239 0.0000-0.0170 ( 62249 PWs)   bands (ev):

   -56.2784 -56.2784 -56.2784 -56.2784 -56.2755 -56.2755 -56.2755 -56.2755
   -56.2607 -56.2607 -56.2607 -56.2607 -56.2556 -56.2556 -56.2555 -56.2555
   -56.2531 -56.2531 -56.2531 -56.2531 -56.2395 -56.2395 -56.2395 -56.2395
   -56.2274 -56.2274 -56.2274 -56.2274 -56.2237 -56.2237 -56.2237 -56.2237
   -56.2127 -56.2127 -56.2127 -56.2127 -56.2098 -56.2098 -56.2098 -56.2098
   -56.1945 -56.1945 -56.1945 -56.1945 -56.1935 -56.1935 -56.1935 -56.1935
   -56.1927 -56.1926 -56.1926 -56.1926 -56.1865 -56.1865 -56.1865 -56.1865
   -56.1836 -56.1836 -56.1835 -56.1835 -46.9320 -46.9320 -42.0671 -42.0671
   -41.7985 -41.7985 -41.7701 -41.7700 -20.7600 -20.7599 -20.7546 -20.7546
   -20.7546 -20.7543 -10.6883 -10.5156 -10.3806 -10.3055 -10.2900 -10.2637
   -10.2574 -10.2411 -10.2269 -10.1696 -10.1587 -10.1431  -0.1408  -0.0869
     0.2093   0.2349   0.2910   0.3131   0.4350   0.4776   0.6326   0.7351
     0.8471   0.8505   0.9559   0.9979   1.1714   1.2181   1.2390   1.4147
     1.5299   1.5487   1.6350   1.7300   1.7920   1.8770   1.9061   1.9859
     2.0387   2.1162   2.1542   2.2451   2.3064   2.3361   2.4334   2.4674
     2.5208   2.5597   7.0754   7.2954   7.3274   7.3969   7.4251   7.4724
     7.7998   8.6918   8.8718   9.0150   9.1207   9.2515   9.4095   9.4738
     9.5075   9.6503   9.8332  10.0378  10.0531  10.3827  10.4752  10.5072
    11.0130  11.1259

          k = 0.0239 0.0278 0.0085 ( 62267 PWs)   bands (ev):

   -56.2784 -56.2784 -56.2784 -56.2784 -56.2755 -56.2755 -56.2755 -56.2755
   -56.2607 -56.2607 -56.2607 -56.2607 -56.2556 -56.2556 -56.2555 -56.2555
   -56.2531 -56.2531 -56.2531 -56.2531 -56.2395 -56.2395 -56.2395 -56.2395
   -56.2274 -56.2274 -56.2274 -56.2274 -56.2237 -56.2237 -56.2237 -56.2237
   -56.2127 -56.2127 -56.2127 -56.2127 -56.2098 -56.2098 -56.2098 -56.2098
   -56.1945 -56.1945 -56.1945 -56.1945 -56.1935 -56.1935 -56.1935 -56.1935
   -56.1927 -56.1926 -56.1926 -56.1926 -56.1865 -56.1865 -56.1865 -56.1865
   -56.1836 -56.1836 -56.1835 -56.1835 -46.9320 -46.9320 -42.0671 -42.0671
   -41.7985 -41.7985 -41.7701 -41.7701 -20.7599 -20.7599 -20.7546 -20.7546
   -20.7545 -20.7544 -10.6665 -10.5882 -10.3366 -10.3035 -10.3001 -10.2918
   -10.2338 -10.2104 -10.1960 -10.1956 -10.1658 -10.1507  -0.1003  -0.0550
     0.1896   0.1918   0.3255   0.3259   0.5195   0.5438   0.6198   0.6247
     0.8418   0.9368   1.0240   1.0339   1.1705   1.2470   1.2915   1.3820
     1.4044   1.5351   1.6625   1.6680   1.7328   1.8501   1.8563   1.9971
     2.0155   2.0861   2.1934   2.2019   2.2868   2.3228   2.3713   2.4413
     2.4682   2.5147   7.2247   7.3744   7.4056   7.4269   7.4301   7.4617
     8.0042   8.5303   8.8591   8.9660   9.1128   9.1335   9.3816   9.5289
     9.5888   9.9048  10.0384  10.1810  10.2433  10.5042  10.5987  10.6944
    11.0435  11.1228

          k = 0.0239 0.0278 0.0340 ( 62288 PWs)   bands (ev):

   -56.2784 -56.2784 -56.2784 -56.2784 -56.2755 -56.2755 -56.2755 -56.2755
   -56.2607 -56.2607 -56.2607 -56.2607 -56.2556 -56.2556 -56.2555 -56.2555
   -56.2531 -56.2531 -56.2531 -56.2531 -56.2395 -56.2395 -56.2395 -56.2395
   -56.2274 -56.2274 -56.2274 -56.2274 -56.2237 -56.2237 -56.2237 -56.2237
   -56.2127 -56.2127 -56.2127 -56.2127 -56.2098 -56.2098 -56.2098 -56.2098
   -56.1945 -56.1945 -56.1945 -56.1945 -56.1935 -56.1935 -56.1935 -56.1935
   -56.1926 -56.1926 -56.1926 -56.1926 -56.1865 -56.1865 -56.1865 -56.1865
   -56.1836 -56.1836 -56.1835 -56.1835 -46.9320 -46.9320 -42.0671 -42.0671
   -41.7985 -41.7985 -41.7701 -41.7701 -20.7600 -20.7599 -20.7546 -20.7546
   -20.7545 -20.7544 -10.6354 -10.5617 -10.3344 -10.3100 -10.3070 -10.2942
   -10.2558 -10.2254 -10.2119 -10.2029 -10.1661 -10.1435   0.0267   0.0269
     0.2509   0.2668   0.3565   0.3693   0.5117   0.5407   0.6214   0.6909
     0.8432   0.8806   1.0780   1.0850   1.1021   1.2404   1.3224   1.3581
     1.4241   1.5196   1.5279   1.6313   1.7260   1.8188   1.8269   1.9543
     2.0370   2.0516   2.1125   2.1747   2.2521   2.2849   2.2879   2.3644
     2.3814   2.4120   7.3109   7.3413   7.3758   7.4144   7.4545   7.4822
     8.2856   8.5542   8.9842   9.0128   9.1132   9.4144   9.5066   9.6215
     9.8329   9.9790  10.0965  10.3404  10.4126  10.5556  10.6799  10.7225
    11.0287  11.0805

          k = 0.0239 0.0278 0.0595 ( 62300 PWs)   bands (ev):

   -56.2784 -56.2784 -56.2784 -56.2784 -56.2755 -56.2755 -56.2755 -56.2755
   -56.2607 -56.2607 -56.2607 -56.2607 -56.2556 -56.2555 -56.2555 -56.2555
   -56.2531 -56.2531 -56.2531 -56.2531 -56.2395 -56.2395 -56.2395 -56.2395
   -56.2274 -56.2274 -56.2274 -56.2274 -56.2237 -56.2237 -56.2237 -56.2237
   -56.2127 -56.2127 -56.2127 -56.2127 -56.2098 -56.2098 -56.2098 -56.2098
   -56.1945 -56.1945 -56.1945 -56.1945 -56.1935 -56.1935 -56.1935 -56.1935
   -56.1926 -56.1926 -56.1926 -56.1926 -56.1865 -56.1865 -56.1865 -56.1865
   -56.1836 -56.1836 -56.1835 -56.1835 -46.9320 -46.9320 -42.0671 -42.0671
   -41.7985 -41.7985 -41.7701 -41.7701 -20.7600 -20.7600 -20.7547 -20.7546
   -20.7545 -20.7544 -10.5828 -10.5149 -10.3525 -10.3458 -10.3126 -10.2973
   -10.2628 -10.2373 -10.2286 -10.2067 -10.1678 -10.1497   0.0412   0.0685
     0.2337   0.2758   0.4219   0.4468   0.5784   0.6153   0.6704   0.7053
     0.8293   0.8669   1.0065   1.0640   1.1483   1.2532   1.3153   1.3874
     1.4594   1.5474   1.5776   1.6429   1.6436   1.7493   1.8015   1.9220
     1.9852   2.0255   2.0698   2.1113   2.1690   2.2466   2.2512   2.3284
     2.3353   2.4087   7.2488   7.3034   7.3125   7.4047   7.4182   7.5071
     8.5794   8.5818   9.1256   9.1416   9.2535   9.5649   9.7612   9.8290
     9.8671   9.9738  10.0750  10.1763  10.2762  10.3855  10.4807  10.7779
    11.1173  11.2069

          k = 0.0239 0.0278-0.0680 ( 62329 PWs)   bands (ev):

   -56.2784 -56.2784 -56.2784 -56.2784 -56.2755 -56.2755 -56.2755 -56.2755
   -56.2607 -56.2607 -56.2607 -56.2607 -56.2556 -56.2556 -56.2555 -56.2555
   -56.2531 -56.2531 -56.2531 -56.2531 -56.2395 -56.2395 -56.2395 -56.2395
   -56.2274 -56.2274 -56.2274 -56.2274 -56.2237 -56.2237 -56.2237 -56.2237
   -56.2127 -56.2127 -56.2127 -56.2127 -56.2098 -56.2098 -56.2098 -56.2098
   -56.1945 -56.1945 -56.1945 -56.1945 -56.1935 -56.1935 -56.1935 -56.1935
   -56.1926 -56.1926 -56.1926 -56.1926 -56.1865 -56.1865 -56.1865 -56.1865
   -56.1836 -56.1836 -56.1835 -56.1835 -46.9320 -46.9320 -42.0671 -42.0671
   -41.7986 -41.7985 -41.7701 -41.7701 -20.7600 -20.7600 -20.7547 -20.7546
   -20.7545 -20.7544 -10.5671 -10.4986 -10.3695 -10.3561 -10.3143 -10.2986
   -10.2505 -10.2377 -10.2362 -10.1877 -10.1776 -10.1666  -0.0238  -0.0173
     0.2537   0.2934   0.3582   0.3885   0.5831   0.6078   0.6305   0.7092
     0.8329   0.8373   1.0972   1.1207   1.1812   1.3108   1.3167   1.3952
     1.4951   1.5514   1.5801   1.6220   1.7328   1.8205   1.8859   1.9048
     1.9682   2.0382   2.0383   2.1121   2.1193   2.2335   2.2540   2.3111
     2.3993   2.4499   7.1928   7.2559   7.2836   7.3715   7.3722   7.4893
     8.6468   8.6871   9.0336   9.1882   9.3569   9.4097   9.6133   9.6627
     9.7611   9.7874   9.9331  10.2768  10.3727  10.4929  10.5040  10.7769
    10.9064  11.0106

          k = 0.0239 0.0278-0.0425 ( 62284 PWs)   bands (ev):

   -56.2784 -56.2784 -56.2784 -56.2784 -56.2755 -56.2755 -56.2755 -56.2755
   -56.2607 -56.2607 -56.2607 -56.2607 -56.2556 -56.2556 -56.2555 -56.2555
   -56.2531 -56.2531 -56.2531 -56.2531 -56.2395 -56.2395 -56.2395 -56.2395
   -56.2274 -56.2274 -56.2274 -56.2274 -56.2237 -56.2237 -56.2237 -56.2237
   -56.2127 -56.2127 -56.2127 -56.2127 -56.2098 -56.2098 -56.2098 -56.2098
   -56.1945 -56.1945 -56.1945 -56.1945 -56.1935 -56.1935 -56.1935 -56.1935
   -56.1927 -56.1926 -56.1926 -56.1926 -56.1865 -56.1865 -56.1865 -56.1865
   -56.1836 -56.1836 -56.1835 -56.1835 -46.9320 -46.9320 -42.0671 -42.0671
   -41.7985 -41.7985 -41.7701 -41.7701 -20.7600 -20.7600 -20.7547 -20.7546
   -20.7545 -20.7544 -10.6144 -10.5405 -10.3399 -10.3334 -10.3019 -10.2929
   -10.2492 -10.2243 -10.2127 -10.1857 -10.1853 -10.1712  -0.0855  -0.0742
     0.2353   0.2420   0.3288   0.3498   0.4524   0.4543   0.5369   0.5700
     0.8664   0.9530   1.1047   1.2002   1.2585   1.2981   1.3650   1.4536
     1.5497   1.5735   1.6251   1.7136   1.7607   1.8039   1.8773   1.9031
     1.9324   2.0594   2.0923   2.1325   2.2347   2.2957   2.3543   2.3818
     2.4532   2.4882   7.2203   7.2540   7.2655   7.3459   7.3656   7.4348
     8.4396   8.7258   8.8853   8.9144   9.2270   9.2410   9.5372   9.5875
     9.7259   9.7610   9.9663  10.0793  10.1889  10.3184  10.3663  10.4510
    10.9666  10.9754

          k = 0.0239 0.0278-0.0170 ( 62246 PWs)   bands (ev):

   -56.2784 -56.2784 -56.2784 -56.2784 -56.2755 -56.2755 -56.2755 -56.2755
   -56.2607 -56.2607 -56.2607 -56.2607 -56.2556 -56.2556 -56.2555 -56.2555
   -56.2531 -56.2531 -56.2531 -56.2531 -56.2395 -56.2395 -56.2395 -56.2395
   -56.2274 -56.2274 -56.2274 -56.2274 -56.2237 -56.2237 -56.2237 -56.2237
   -56.2127 -56.2127 -56.2127 -56.2127 -56.2098 -56.2098 -56.2098 -56.2098
   -56.1945 -56.1945 -56.1945 -56.1945 -56.1935 -56.1935 -56.1935 -56.1935
   -56.1927 -56.1927 -56.1926 -56.1926 -56.1865 -56.1865 -56.1865 -56.1865
   -56.1836 -56.1836 -56.1835 -56.1835 -46.9320 -46.9320 -42.0671 -42.0671
   -41.7985 -41.7985 -41.7701 -41.7701 -20.7600 -20.7599 -20.7546 -20.7546
   -20.7545 -20.7544 -10.6581 -10.5798 -10.3391 -10.3139 -10.2947 -10.2820
   -10.2326 -10.2117 -10.2063 -10.1862 -10.1723 -10.1639  -0.1279  -0.0936
     0.1745   0.1784   0.2905   0.3158   0.4716   0.4932   0.5425   0.5721
     0.9001   0.9181   1.0782   1.1339   1.2261   1.2938   1.3018   1.3835
     1.5504   1.5653   1.6794   1.6801   1.7726   1.8415   1.8722   1.9731
     1.9737   2.0730   2.1399   2.1443   2.3284   2.3755   2.4000   2.4720
     2.5079   2.5124   7.1887   7.3140   7.3311   7.3730   7.4085   7.4367
     8.0690   8.5810   8.8648   8.8665   9.1002   9.1716   9.5553   9.5737
     9.5949   9.7716   9.8656  10.0108  10.1415  10.2986  10.3446  10.4070
    11.0315  11.0550

          k = 0.0478 0.0000 0.0170 ( 62301 PWs)   bands (ev):

   -56.2784 -56.2784 -56.2784 -56.2784 -56.2755 -56.2755 -56.2755 -56.2755
   -56.2607 -56.2607 -56.2607 -56.2607 -56.2556 -56.2556 -56.2555 -56.2555
   -56.2531 -56.2531 -56.2531 -56.2531 -56.2395 -56.2395 -56.2395 -56.2395
   -56.2274 -56.2274 -56.2274 -56.2274 -56.2237 -56.2237 -56.2237 -56.2237
   -56.2127 -56.2127 -56.2127 -56.2127 -56.2098 -56.2098 -56.2098 -56.2098
   -56.1945 -56.1945 -56.1945 -56.1945 -56.1935 -56.1935 -56.1935 -56.1935
   -56.1926 -56.1926 -56.1926 -56.1926 -56.1865 -56.1865 -56.1865 -56.1865
   -56.1836 -56.1836 -56.1835 -56.1835 -46.9320 -46.9320 -42.0671 -42.0671
   -41.7985 -41.7985 -41.7701 -41.7701 -20.7599 -20.7599 -20.7547 -20.7546
   -20.7545 -20.7544 -10.6267 -10.4905 -10.3659 -10.3570 -10.3063 -10.2843
   -10.2618 -10.2525 -10.2099 -10.1933 -10.1558 -10.1488  -0.0430   0.1232
     0.3060   0.3294   0.3697   0.4151   0.4522   0.5749   0.6879   0.7106
     0.7734   0.8659   0.8848   0.9687   1.0640   1.1934   1.2724   1.4331
     1.4543   1.5536   1.6160   1.6324   1.6922   1.9013   1.9542   1.9665
     1.9712   1.9968   2.1102   2.1139   2.1734   2.2052   2.3417   2.4328
     2.4357   2.4921   7.2109   7.3037   7.3531   7.3824   7.3997   7.4383
     8.3740   8.7920   8.9303   8.9965   9.0414   9.1603   9.5314   9.7910
     9.9295  10.0392  10.1258  10.2154  10.4095  10.5479  10.5539  10.8470
    10.9185  11.1677

          k = 0.0478 0.0000 0.0425 ( 62287 PWs)   bands (ev):

   -56.2784 -56.2784 -56.2784 -56.2784 -56.2755 -56.2755 -56.2755 -56.2755
   -56.2607 -56.2607 -56.2607 -56.2607 -56.2556 -56.2555 -56.2555 -56.2555
   -56.2531 -56.2531 -56.2531 -56.2531 -56.2395 -56.2395 -56.2395 -56.2395
   -56.2274 -56.2274 -56.2274 -56.2274 -56.2237 -56.2237 -56.2237 -56.2237
   -56.2127 -56.2127 -56.2127 -56.2127 -56.2098 -56.2098 -56.2098 -56.2098
   -56.1945 -56.1945 -56.1945 -56.1945 -56.1935 -56.1935 -56.1935 -56.1935
   -56.1926 -56.1926 -56.1926 -56.1926 -56.1865 -56.1865 -56.1865 -56.1865
   -56.1836 -56.1836 -56.1835 -56.1835 -46.9320 -46.9320 -42.0671 -42.0671
   -41.7985 -41.7985 -41.7701 -41.7701 -20.7600 -20.7599 -20.7547 -20.7547
   -20.7545 -20.7544 -10.5881 -10.4762 -10.3734 -10.3437 -10.3202 -10.2902
   -10.2808 -10.2532 -10.2299 -10.1987 -10.1567 -10.1482   0.0721   0.1024
     0.2902   0.2924   0.4660   0.4820   0.5213   0.5637   0.6668   0.7477
     0.7485   0.8772   1.0053   1.0415   1.0770   1.0962   1.2009   1.3696
     1.3992   1.5141   1.5340   1.7022   1.7505   1.8899   1.9044   1.9529
     1.9713   2.0099   2.0635   2.1214   2.1253   2.2445   2.2894   2.3209
     2.3777   2.4666   7.2033   7.2515   7.3785   7.3851   7.4187   7.4460
     8.6758   8.7190   8.8978   8.9949   9.0879   9.4276   9.4999   9.8833
    10.0114  10.0521  10.1135  10.2252  10.2774  10.5114  10.5607  10.7774
    10.9444  11.2957

          k = 0.0478 0.0000 0.0680 ( 62274 PWs)   bands (ev):

   -56.2784 -56.2784 -56.2784 -56.2784 -56.2755 -56.2755 -56.2755 -56.2755
   -56.2607 -56.2607 -56.2607 -56.2607 -56.2556 -56.2556 -56.2555 -56.2555
   -56.2531 -56.2531 -56.2531 -56.2531 -56.2395 -56.2395 -56.2395 -56.2395
   -56.2274 -56.2274 -56.2274 -56.2274 -56.2237 -56.2237 -56.2237 -56.2237
   -56.2127 -56.2127 -56.2127 -56.2127 -56.2098 -56.2098 -56.2098 -56.2098
   -56.1945 -56.1945 -56.1945 -56.1945 -56.1935 -56.1935 -56.1935 -56.1935
   -56.1926 -56.1926 -56.1926 -56.1926 -56.1865 -56.1865 -56.1865 -56.1865
   -56.1836 -56.1836 -56.1835 -56.1835 -46.9320 -46.9320 -42.0671 -42.0671
   -41.7985 -41.7985 -41.7701 -41.7701 -20.7600 -20.7599 -20.7547 -20.7547
   -20.7545 -20.7544 -10.5400 -10.4482 -10.3708 -10.3600 -10.3197 -10.2995
   -10.2799 -10.2750 -10.2608 -10.1884 -10.1621 -10.1605  -0.0106   0.0672
     0.2321   0.2563   0.4232   0.4440   0.5574   0.5800   0.6650   0.7164
     0.7263   0.8813   0.9055   1.0389   1.1383   1.3266   1.3405   1.4192
     1.4208   1.5408   1.6482   1.7879   1.8234   1.8500   1.9105   1.9525
     1.9923   2.0048   2.0789   2.1052   2.1292   2.1896   2.1958   2.2343
     2.3885   2.4960   7.1134   7.1870   7.3329   7.3562   7.3860   7.4172
     8.6929   8.8757   9.0000   9.0072   9.2907   9.3785   9.5375   9.6163
     9.6557   9.7762  10.0306  10.0888  10.1628  10.2435  10.3769  10.4318
    11.0843  11.2198

          k = 0.0478 0.0000-0.0595 ( 62296 PWs)   bands (ev):

   -56.2784 -56.2784 -56.2784 -56.2784 -56.2755 -56.2755 -56.2755 -56.2755
   -56.2607 -56.2607 -56.2607 -56.2607 -56.2556 -56.2556 -56.2555 -56.2555
   -56.2531 -56.2531 -56.2531 -56.2531 -56.2395 -56.2395 -56.2395 -56.2395
   -56.2274 -56.2274 -56.2274 -56.2274 -56.2237 -56.2237 -56.2237 -56.2237
   -56.2127 -56.2127 -56.2127 -56.2127 -56.2098 -56.2098 -56.2098 -56.2098
   -56.1945 -56.1945 -56.1945 -56.1945 -56.1935 -56.1935 -56.1935 -56.1935
   -56.1926 -56.1926 -56.1926 -56.1926 -56.1865 -56.1865 -56.1865 -56.1865
   -56.1836 -56.1836 -56.1835 -56.1835 -46.9320 -46.9320 -42.0671 -42.0671
   -41.7985 -41.7985 -41.7701 -41.7701 -20.7600 -20.7600 -20.7547 -20.7547
   -20.7545 -20.7544 -10.5472 -10.4265 -10.3767 -10.3558 -10.3120 -10.3047
   -10.2939 -10.2588 -10.2578 -10.1877 -10.1742 -10.1687  -0.0546  -0.0362
     0.1820   0.2239   0.3590   0.3729   0.4549   0.4719   0.5435   0.6382
     0.7463   0.9415   1.0987   1.1431   1.2440   1.3721   1.3822   1.5071
     1.5198   1.6872   1.7394   1.7794   1.7907   1.8231   1.8322   1.9118
     1.9292   2.0385   2.1050   2.1766   2.1989   2.1990   2.2648   2.3213
     2.4477   2.4758   7.0949   7.1843   7.2692   7.2697   7.2992   7.3801
     8.6235   8.7680   8.9619   9.0740   9.1999   9.2686   9.3935   9.4254
     9.5844   9.7440   9.8098   9.9374   9.9754  10.0720  10.2747  10.4553
    11.0159  11.2164

          k = 0.0478 0.0000-0.0340 ( 62287 PWs)   bands (ev):

   -56.2784 -56.2784 -56.2784 -56.2784 -56.2755 -56.2755 -56.2755 -56.2755
   -56.2607 -56.2607 -56.2607 -56.2607 -56.2556 -56.2556 -56.2555 -56.2555
   -56.2531 -56.2531 -56.2531 -56.2531 -56.2395 -56.2395 -56.2395 -56.2395
   -56.2274 -56.2274 -56.2274 -56.2274 -56.2237 -56.2237 -56.2237 -56.2237
   -56.2127 -56.2127 -56.2127 -56.2127 -56.2098 -56.2098 -56.2098 -56.2098
   -56.1945 -56.1945 -56.1945 -56.1945 -56.1935 -56.1935 -56.1935 -56.1935
   -56.1927 -56.1927 -56.1926 -56.1926 -56.1865 -56.1865 -56.1865 -56.1865
   -56.1836 -56.1836 -56.1835 -56.1835 -46.9320 -46.9320 -42.0671 -42.0671
   -41.7985 -41.7985 -41.7701 -41.7701 -20.7600 -20.7599 -20.7547 -20.7547
   -20.7545 -20.7544 -10.5975 -10.4529 -10.3576 -10.3313 -10.3256 -10.2948
   -10.2844 -10.2497 -10.2295 -10.1994 -10.1679 -10.1667  -0.1324  -0.0028
     0.1661   0.2615   0.3492   0.3743   0.3894   0.4188   0.4806   0.5261
     0.6592   0.9611   1.1609   1.1830   1.3451   1.3680   1.4083   1.4659
     1.5682   1.7028   1.7262   1.7719   1.8186   1.8243   1.8632   1.8725
     1.9606   2.0159   2.0490   2.1408   2.2484   2.3491   2.3619   2.4057
     2.4305   2.5101   7.1435   7.1711   7.2219   7.2914   7.2930   7.3699
     8.3572   8.7636   8.8430   9.1204   9.1406   9.2655   9.3746   9.5605
     9.6266   9.6596   9.7737   9.9158   9.9768  10.0140  10.1867  10.2017
    10.8459  11.2946

          k = 0.0478 0.0000-0.0085 ( 62288 PWs)   bands (ev):

   -56.2784 -56.2784 -56.2784 -56.2784 -56.2755 -56.2755 -56.2755 -56.2755
   -56.2607 -56.2607 -56.2607 -56.2607 -56.2556 -56.2556 -56.2555 -56.2555
   -56.2531 -56.2531 -56.2531 -56.2531 -56.2395 -56.2395 -56.2395 -56.2395
   -56.2274 -56.2274 -56.2274 -56.2274 -56.2237 -56.2237 -56.2237 -56.2237
   -56.2127 -56.2127 -56.2127 -56.2127 -56.2098 -56.2098 -56.2098 -56.2098
   -56.1945 -56.1945 -56.1945 -56.1945 -56.1935 -56.1935 -56.1935 -56.1935
   -56.1926 -56.1926 -56.1926 -56.1926 -56.1865 -56.1865 -56.1865 -56.1865
   -56.1836 -56.1836 -56.1835 -56.1835 -46.9320 -46.9320 -42.0671 -42.0671
   -41.7985 -41.7985 -41.7701 -41.7701 -20.7600 -20.7599 -20.7547 -20.7547
   -20.7545 -20.7544 -10.6304 -10.4825 -10.3604 -10.3416 -10.3116 -10.2781
   -10.2715 -10.2579 -10.2110 -10.1895 -10.1588 -10.1585  -0.1349   0.0704
     0.2398   0.2897   0.3024   0.3872   0.4339   0.4729   0.5529   0.6102
     0.6878   0.8876   0.9075   1.1541   1.2139   1.3406   1.3664   1.4540
     1.5451   1.6116   1.6865   1.7106   1.7776   1.8531   1.8961   1.9369
     1.9685   2.0198   2.0985   2.1953   2.2402   2.2846   2.3494   2.4026
     2.4779   2.5021   7.1541   7.2617   7.2653   7.3505   7.3623   7.4033
     8.2325   8.8085   9.0127   9.0804   9.1144   9.2010   9.2795   9.5832
     9.6807   9.8596   9.9618  10.0079  10.0789  10.2609  10.3413  10.3831
    10.8420  11.1404

          k = 0.0478 0.0278 0.0170 ( 62305 PWs)   bands (ev):

   -56.2784 -56.2784 -56.2784 -56.2784 -56.2755 -56.2755 -56.2755 -56.2755
   -56.2607 -56.2607 -56.2607 -56.2607 -56.2556 -56.2556 -56.2555 -56.2555
   -56.2531 -56.2531 -56.2531 -56.2531 -56.2395 -56.2395 -56.2395 -56.2395
   -56.2274 -56.2274 -56.2274 -56.2274 -56.2237 -56.2237 -56.2237 -56.2237
   -56.2127 -56.2127 -56.2127 -56.2127 -56.2098 -56.2098 -56.2098 -56.2098
   -56.1945 -56.1945 -56.1945 -56.1945 -56.1935 -56.1935 -56.1935 -56.1935
   -56.1926 -56.1926 -56.1926 -56.1926 -56.1865 -56.1865 -56.1865 -56.1865
   -56.1836 -56.1836 -56.1835 -56.1835 -46.9320 -46.9320 -42.0671 -42.0671
   -41.7985 -41.7985 -41.7701 -41.7701 -20.7599 -20.7599 -20.7547 -20.7547
   -20.7545 -20.7544 -10.6019 -10.5390 -10.3587 -10.3311 -10.3149 -10.2909
   -10.2547 -10.2364 -10.2111 -10.2011 -10.1604 -10.1523  -0.0270   0.0530
     0.2553   0.2886   0.3849   0.3868   0.5233   0.5638   0.6229   0.6395
     0.8104   0.9611   1.0269   1.0276   1.1835   1.1917   1.3107   1.4224
     1.5090   1.5095   1.5913   1.6898   1.7217   1.7953   1.8452   1.8520
     1.9484   2.0042   2.1097   2.1144   2.2475   2.2657   2.3197   2.3394
     2.4075   2.4736   7.2547   7.3166   7.3535   7.3896   7.4037   7.4597
     8.4567   8.6086   8.9999   9.1672   9.1757   9.3182   9.5359   9.7720
     9.8821  10.0878  10.1137  10.1916  10.2231  10.4365  10.5561  10.6614
    10.9852  11.1514

          k = 0.0478 0.0278 0.0425 ( 62287 PWs)   bands (ev):

   -56.2784 -56.2784 -56.2784 -56.2784 -56.2755 -56.2755 -56.2755 -56.2755
   -56.2607 -56.2607 -56.2607 -56.2607 -56.2556 -56.2555 -56.2555 -56.2555
   -56.2531 -56.2531 -56.2531 -56.2531 -56.2395 -56.2395 -56.2395 -56.2395
   -56.2274 -56.2274 -56.2274 -56.2274 -56.2237 -56.2237 -56.2237 -56.2237
   -56.2127 -56.2127 -56.2127 -56.2127 -56.2098 -56.2098 -56.2098 -56.2098
   -56.1945 -56.1945 -56.1945 -56.1945 -56.1935 -56.1935 -56.1935 -56.1935
   -56.1926 -56.1926 -56.1926 -56.1926 -56.1865 -56.1865 -56.1865 -56.1865
   -56.1836 -56.1836 -56.1835 -56.1835 -46.9320 -46.9320 -42.0671 -42.0671
   -41.7985 -41.7985 -41.7701 -41.7701 -20.7600 -20.7599 -20.7547 -20.7547
   -20.7545 -20.7544 -10.5664 -10.5130 -10.3726 -10.3429 -10.3023 -10.3007
   -10.2697 -10.2492 -10.2194 -10.2170 -10.1567 -10.1493   0.0347   0.0412
     0.2920   0.2951   0.4260   0.4288   0.6049   0.6133   0.6589   0.7396
     0.8239   0.8350   1.0112   1.0356   1.0974   1.1546   1.3360   1.4152
     1.4775   1.5649   1.5965   1.6643   1.6842   1.7601   1.8347   1.8529
     1.9225   1.9973   2.0742   2.1492   2.1865   2.2517   2.2618   2.2914
     2.3949   2.3978   7.2281   7.3122   7.3147   7.3966   7.4373   7.4780
     8.5867   8.6032   9.0893   9.0975   9.3357   9.5593   9.6357   9.8198
     9.9044   9.9661  10.0796  10.2252  10.3065  10.3077  10.5709  10.7799
    11.0559  11.2048

          k = 0.0478 0.0278 0.0680 ( 62297 PWs)   bands (ev):

   -56.2784 -56.2784 -56.2784 -56.2784 -56.2755 -56.2755 -56.2755 -56.2755
   -56.2607 -56.2607 -56.2607 -56.2607 -56.2556 -56.2556 -56.2555 -56.2555
   -56.2531 -56.2531 -56.2531 -56.2531 -56.2395 -56.2395 -56.2395 -56.2395
   -56.2274 -56.2274 -56.2274 -56.2274 -56.2237 -56.2237 -56.2237 -56.2237
   -56.2127 -56.2127 -56.2127 -56.2127 -56.2098 -56.2098 -56.2098 -56.2098
   -56.1945 -56.1945 -56.1945 -56.1945 -56.1935 -56.1935 -56.1935 -56.1935
   -56.1926 -56.1926 -56.1926 -56.1926 -56.1865 -56.1865 -56.1865 -56.1865
   -56.1836 -56.1836 -56.1835 -56.1835 -46.9320 -46.9320 -42.0671 -42.0671
   -41.7985 -41.7985 -41.7701 -41.7701 -20.7600 -20.7600 -20.7547 -20.7547
   -20.7545 -20.7544 -10.5199 -10.4734 -10.3765 -10.3619 -10.3243 -10.3185
   -10.2642 -10.2530 -10.2388 -10.2114 -10.1623 -10.1606  -0.0691  -0.0471
     0.2869   0.3427   0.3879   0.4265   0.5571   0.6089   0.7322   0.7481
     0.8106   0.8969   0.9286   0.9581   1.0963   1.2732   1.4598   1.4811
     1.5007   1.6286   1.6608   1.7298   1.7328   1.7652   1.8536   1.8918
     1.9659   2.0061   2.0349   2.0397   2.1406   2.2228   2.2774   2.3045
     2.3648   2.4125   7.1311   7.2362   7.2752   7.3788   7.4103   7.4439
     8.6853   8.7593   8.9931   9.0114   9.3807   9.4269   9.5043   9.5088
     9.8320   9.8780   9.9527  10.1552  10.3649  10.3657  10.5897  10.8015
    11.0439  11.1904

          k = 0.0478 0.0278-0.0595 ( 62305 PWs)   bands (ev):

   -56.2784 -56.2784 -56.2784 -56.2784 -56.2755 -56.2755 -56.2755 -56.2755
   -56.2607 -56.2607 -56.2607 -56.2607 -56.2556 -56.2556 -56.2555 -56.2555
   -56.2531 -56.2531 -56.2531 -56.2531 -56.2395 -56.2395 -56.2395 -56.2395
   -56.2274 -56.2274 -56.2274 -56.2274 -56.2237 -56.2237 -56.2237 -56.2237
   -56.2127 -56.2127 -56.2127 -56.2127 -56.2098 -56.2098 -56.2098 -56.2098
   -56.1945 -56.1945 -56.1945 -56.1945 -56.1935 -56.1935 -56.1935 -56.1935
   -56.1927 -56.1926 -56.1926 -56.1926 -56.1865 -56.1865 -56.1865 -56.1865
   -56.1836 -56.1836 -56.1835 -56.1835 -46.9320 -46.9320 -42.0671 -42.0671
   -41.7985 -41.7985 -41.7701 -41.7701 -20.7600 -20.7600 -20.7548 -20.7547
   -20.7545 -20.7544 -10.5240 -10.4667 -10.3713 -10.3587 -10.3242 -10.3206
   -10.2597 -10.2457 -10.2362 -10.2021 -10.1789 -10.1756  -0.1423  -0.1289
     0.2677   0.2769   0.3375   0.3549   0.4875   0.4878   0.6202   0.6732
     0.8439   0.9516   1.1110   1.1216   1.1917   1.2788   1.4855   1.4951
     1.5492   1.6478   1.6781   1.7043   1.7553   1.7874   1.8786   1.9355
     1.9766   2.0250   2.1228   2.1354   2.1778   2.2368   2.3248   2.3319
     2.4041   2.4067   7.0761   7.1504   7.2788   7.3258   7.3514   7.3796
     8.7024   8.7274   8.9171   8.9734   9.1699   9.2051   9.3487   9.3602
     9.5899   9.7203  10.0827  10.1648  10.3843  10.4675  10.5669  10.5887
    10.9186  11.0521

          k = 0.0478 0.0278-0.0340 ( 62318 PWs)   bands (ev):

   -56.2784 -56.2784 -56.2784 -56.2784 -56.2755 -56.2755 -56.2755 -56.2755
   -56.2607 -56.2607 -56.2607 -56.2607 -56.2556 -56.2556 -56.2555 -56.2555
   -56.2531 -56.2531 -56.2531 -56.2531 -56.2395 -56.2395 -56.2395 -56.2395
   -56.2274 -56.2274 -56.2274 -56.2274 -56.2237 -56.2237 -56.2237 -56.2237
   -56.2127 -56.2127 -56.2127 -56.2127 -56.2098 -56.2098 -56.2098 -56.2098
   -56.1945 -56.1945 -56.1945 -56.1945 -56.1935 -56.1935 -56.1935 -56.1935
   -56.1927 -56.1927 -56.1926 -56.1926 -56.1865 -56.1865 -56.1865 -56.1865
   -56.1836 -56.1836 -56.1835 -56.1835 -46.9320 -46.9320 -42.0671 -42.0671
   -41.7985 -41.7985 -41.7701 -41.7701 -20.7600 -20.7599 -20.7547 -20.7547
   -20.7545 -20.7544 -10.5717 -10.5058 -10.3461 -10.3334 -10.3179 -10.3012
   -10.2677 -10.2297 -10.2138 -10.2119 -10.1799 -10.1779  -0.1680  -0.1088
     0.2271   0.2656   0.3280   0.3340   0.4263   0.4446   0.5009   0.5020
     0.9236   1.0232   1.1211   1.1457   1.3111   1.4197   1.4428   1.4803
     1.5684   1.6029   1.6257   1.6751   1.7453   1.7561   1.9428   1.9505
     1.9936   2.0350   2.0863   2.1119   2.3152   2.3415   2.3589   2.3864
     2.4000   2.4446   7.1288   7.1538   7.2370   7.3337   7.3422   7.3592
     8.5235   8.7422   8.7969   8.9693   9.1318   9.1675   9.3561   9.4614
     9.5515   9.6097  10.0684  10.1707  10.2464  10.2937  10.3865  10.4201
    10.8587  11.1285

          k = 0.0478 0.0278-0.0085 ( 62289 PWs)   bands (ev):

   -56.2784 -56.2784 -56.2784 -56.2784 -56.2755 -56.2755 -56.2755 -56.2755
   -56.2607 -56.2607 -56.2607 -56.2607 -56.2556 -56.2556 -56.2555 -56.2555
   -56.2531 -56.2531 -56.2531 -56.2531 -56.2395 -56.2395 -56.2395 -56.2395
   -56.2274 -56.2274 -56.2274 -56.2274 -56.2237 -56.2237 -56.2237 -56.2237
   -56.2127 -56.2127 -56.2127 -56.2127 -56.2098 -56.2098 -56.2098 -56.2098
   -56.1945 -56.1945 -56.1945 -56.1945 -56.1935 -56.1935 -56.1935 -56.1935
   -56.1927 -56.1927 -56.1926 -56.1926 -56.1865 -56.1865 -56.1865 -56.1865
   -56.1836 -56.1836 -56.1835 -56.1835 -46.9320 -46.9320 -42.0671 -42.0671
   -41.7985 -41.7985 -41.7701 -41.7701 -20.7600 -20.7599 -20.7547 -20.7547
   -20.7545 -20.7544 -10.6040 -10.5364 -10.3406 -10.3237 -10.3210 -10.2947
   -10.2608 -10.2266 -10.2082 -10.2008 -10.1692 -10.1654  -0.1235  -0.0284
     0.2231   0.2684   0.3451   0.3785   0.4292   0.4618   0.5171   0.5222
     0.9003   1.0049   1.0795   1.0952   1.2132   1.3791   1.3796   1.4653
     1.5650   1.5869   1.6126   1.6630   1.7302   1.7658   1.9114   1.9174
     2.0153   2.0271   2.0913   2.1237   2.2454   2.2826   2.3578   2.3994
     2.4433   2.4931   7.2105   7.2435   7.2858   7.3612   7.3827   7.3982
     8.4159   8.7303   8.9291   8.9493   9.0486   9.1510   9.6007   9.6753
     9.7334   9.8704   9.9211  10.0850  10.1301  10.3273  10.3518  10.4876
    10.9122  11.0535

          k =-0.0718 0.0000-0.0255 ( 62286 PWs)   bands (ev):

   -56.2784 -56.2784 -56.2784 -56.2784 -56.2755 -56.2755 -56.2755 -56.2755
   -56.2607 -56.2607 -56.2607 -56.2607 -56.2556 -56.2555 -56.2555 -56.2555
   -56.2531 -56.2531 -56.2531 -56.2531 -56.2395 -56.2395 -56.2395 -56.2395
   -56.2274 -56.2274 -56.2274 -56.2274 -56.2237 -56.2237 -56.2237 -56.2237
   -56.2127 -56.2127 -56.2127 -56.2127 -56.2098 -56.2098 -56.2098 -56.2098
   -56.1945 -56.1945 -56.1945 -56.1945 -56.1935 -56.1935 -56.1935 -56.1935
   -56.1926 -56.1926 -56.1926 -56.1926 -56.1865 -56.1865 -56.1865 -56.1865
   -56.1836 -56.1836 -56.1835 -56.1835 -46.9320 -46.9320 -42.0671 -42.0671
   -41.7985 -41.7985 -41.7701 -41.7701 -20.7599 -20.7599 -20.7547 -20.7547
   -20.7545 -20.7544 -10.5351 -10.5351 -10.3479 -10.3479 -10.3239 -10.3239
   -10.2701 -10.2701 -10.1919 -10.1919 -10.1608 -10.1608   0.0662   0.0662
     0.3784   0.3784   0.4252   0.4252   0.5084   0.5084   0.7340   0.7340
     0.8374   0.8374   1.0043   1.0043   1.1201   1.1201   1.1470   1.1470
     1.5897   1.5897   1.6747   1.6747   1.7171   1.7171   1.8368   1.8368
     2.0446   2.0446   2.0615   2.0615   2.1976   2.1976   2.3643   2.3643
     2.4208   2.4208   7.2736   7.2736   7.3124   7.3124   7.4276   7.4276
     8.7478   8.7478   8.9074   8.9074   9.2884   9.2884   9.8002   9.8002
    10.0615  10.0615  10.1567  10.1568  10.3744  10.3744  10.7164  10.7164
    11.1703  11.1705

          k =-0.0718 0.0000-0.0000 ( 62279 PWs)   bands (ev):

   -56.2784 -56.2784 -56.2784 -56.2784 -56.2755 -56.2755 -56.2755 -56.2755
   -56.2607 -56.2607 -56.2607 -56.2607 -56.2556 -56.2556 -56.2555 -56.2555
   -56.2531 -56.2531 -56.2531 -56.2531 -56.2395 -56.2395 -56.2395 -56.2395
   -56.2274 -56.2274 -56.2274 -56.2274 -56.2237 -56.2237 -56.2237 -56.2237
   -56.2127 -56.2127 -56.2127 -56.2127 -56.2098 -56.2098 -56.2098 -56.2098
   -56.1945 -56.1945 -56.1945 -56.1945 -56.1935 -56.1935 -56.1935 -56.1935
   -56.1926 -56.1926 -56.1926 -56.1926 -56.1865 -56.1865 -56.1865 -56.1865
   -56.1836 -56.1836 -56.1835 -56.1835 -46.9320 -46.9320 -42.0671 -42.0671
   -41.7985 -41.7985 -41.7701 -41.7701 -20.7600 -20.7599 -20.7547 -20.7547
   -20.7545 -20.7544 -10.5434 -10.5013 -10.3524 -10.3384 -10.3294 -10.3055
   -10.2945 -10.2742 -10.2083 -10.1867 -10.1677 -10.1591  -0.0529   0.1313
     0.2952   0.3332   0.4004   0.4535   0.4693   0.5616   0.5889   0.6206
     0.7400   0.9038   0.9377   1.1250   1.1557   1.2310   1.2727   1.3196
     1.5043   1.6925   1.7035   1.7173   1.7386   1.7519   1.8056   1.9371
     2.0130   2.0397   2.0758   2.1199   2.1279   2.2283   2.3138   2.3437
     2.4035   2.4375   7.2005   7.2586   7.2796   7.3002   7.4021   7.4121
     8.6683   8.8464   8.9065   9.0444   9.2782   9.4072   9.4572   9.6250
     9.9049   9.9105   9.9409  10.0789  10.2816  10.2919  10.4505  10.4749
    11.1021  11.1511

          k =-0.0718 0.0000 0.0255 ( 62307 PWs)   bands (ev):

   -56.2784 -56.2784 -56.2784 -56.2784 -56.2755 -56.2755 -56.2755 -56.2755
   -56.2607 -56.2607 -56.2607 -56.2607 -56.2556 -56.2556 -56.2555 -56.2555
   -56.2531 -56.2531 -56.2531 -56.2531 -56.2395 -56.2395 -56.2395 -56.2395
   -56.2274 -56.2274 -56.2274 -56.2274 -56.2237 -56.2237 -56.2237 -56.2237
   -56.2127 -56.2127 -56.2127 -56.2127 -56.2098 -56.2098 -56.2098 -56.2098
   -56.1945 -56.1945 -56.1945 -56.1945 -56.1935 -56.1935 -56.1935 -56.1935
   -56.1926 -56.1926 -56.1926 -56.1926 -56.1865 -56.1865 -56.1865 -56.1865
   -56.1836 -56.1836 -56.1835 -56.1835 -46.9320 -46.9320 -42.0671 -42.0671
   -41.7985 -41.7985 -41.7701 -41.7701 -20.7600 -20.7599 -20.7548 -20.7547
   -20.7545 -20.7544 -10.5219 -10.4645 -10.3655 -10.3311 -10.3303 -10.3066
   -10.3008 -10.2715 -10.2345 -10.1984 -10.1741 -10.1649  -0.1115   0.0322
     0.2004   0.2547   0.3444   0.3728   0.4200   0.4695   0.5559   0.6557
     0.6966   0.9258   1.0628   1.1200   1.2820   1.3305   1.4529   1.5579
     1.5700   1.6561   1.6765   1.7260   1.7859   1.7944   1.8675   1.9730
     2.0030   2.0431   2.0830   2.1348   2.1637   2.2491   2.2526   2.3452
     2.3857   2.4976   7.1306   7.2038   7.2221   7.2527   7.3259   7.3452
     8.6118   8.8624   8.9537   9.0345   9.1267   9.2330   9.4248   9.4840
     9.6258   9.7223   9.8132   9.8976   9.9719  10.1077  10.2842  10.4408
    11.0256  11.2194

          k =-0.0718 0.0000-0.1020 ( 62288 PWs)   bands (ev):

   -56.2784 -56.2784 -56.2784 -56.2784 -56.2755 -56.2755 -56.2755 -56.2755
   -56.2607 -56.2607 -56.2607 -56.2607 -56.2556 -56.2556 -56.2555 -56.2555
   -56.2531 -56.2531 -56.2531 -56.2531 -56.2395 -56.2395 -56.2395 -56.2395
   -56.2274 -56.2274 -56.2274 -56.2274 -56.2237 -56.2237 -56.2237 -56.2237
   -56.2127 -56.2127 -56.2127 -56.2127 -56.2098 -56.2098 -56.2098 -56.2098
   -56.1945 -56.1945 -56.1945 -56.1945 -56.1935 -56.1935 -56.1935 -56.1935
   -56.1927 -56.1927 -56.1926 -56.1926 -56.1865 -56.1865 -56.1865 -56.1865
   -56.1836 -56.1836 -56.1835 -56.1835 -46.9320 -46.9320 -42.0671 -42.0671
   -41.7985 -41.7985 -41.7701 -41.7701 -20.7600 -20.7600 -20.7548 -20.7547
   -20.7545 -20.7544 -10.4806 -10.4806 -10.3529 -10.3529 -10.3226 -10.3226
   -10.2767 -10.2767 -10.2274 -10.2274 -10.1726 -10.1726  -0.0785  -0.0785
     0.1874   0.1874   0.3232   0.3232   0.3897   0.3897   0.6076   0.6076
     0.8609   0.8609   1.1776   1.1776   1.2972   1.2972   1.5674   1.5674
     1.6412   1.6413   1.6964   1.6964   1.8206   1.8206   1.8452   1.8452
     2.0433   2.0433   2.0946   2.0946   2.2795   2.2795   2.3078   2.3078
     2.4561   2.4561   7.1506   7.1506   7.2200   7.2200   7.2692   7.2692
     8.6310   8.6310   9.0233   9.0233   9.1837   9.1837   9.3157   9.3157
     9.5680   9.5680   9.7583   9.7583  10.0925  10.0925  10.3979  10.3979
    11.0404  11.0404

          k =-0.0718 0.0278-0.0255 ( 62320 PWs)   bands (ev):

   -56.2784 -56.2784 -56.2784 -56.2784 -56.2755 -56.2755 -56.2755 -56.2755
   -56.2607 -56.2607 -56.2607 -56.2607 -56.2556 -56.2555 -56.2555 -56.2555
   -56.2531 -56.2531 -56.2531 -56.2531 -56.2395 -56.2395 -56.2395 -56.2395
   -56.2274 -56.2274 -56.2274 -56.2274 -56.2237 -56.2237 -56.2237 -56.2237
   -56.2127 -56.2127 -56.2127 -56.2127 -56.2098 -56.2098 -56.2098 -56.2098
   -56.1945 -56.1945 -56.1945 -56.1945 -56.1935 -56.1935 -56.1935 -56.1935
   -56.1926 -56.1926 -56.1926 -56.1926 -56.1865 -56.1865 -56.1865 -56.1865
   -56.1836 -56.1836 -56.1835 -56.1835 -46.9320 -46.9320 -42.0671 -42.0671
   -41.7986 -41.7985 -41.7701 -41.7701 -20.7599 -20.7599 -20.7547 -20.7547
   -20.7545 -20.7544 -10.5292 -10.5292 -10.3836 -10.3836 -10.2914 -10.2914
   -10.2619 -10.2619 -10.2071 -10.2071 -10.1564 -10.1564   0.0298   0.0298
     0.2739   0.2739   0.4687   0.4687   0.6239   0.6239   0.6780   0.6780
     0.8893   0.8893   0.9837   0.9837   1.1912   1.1912   1.2553   1.2554
     1.4826   1.4826   1.6041   1.6041   1.7938   1.7938   1.8652   1.8652
     1.9539   1.9539   2.0537   2.0537   2.2301   2.2301   2.2902   2.2902
     2.4360   2.4360   7.2320   7.2320   7.3521   7.3521   7.4654   7.4654
     8.6228   8.6228   9.2755   9.2755   9.3301   9.3301   9.7723   9.7723
     9.8822   9.8822  10.1141  10.1141  10.4880  10.4880  10.7791  10.7791
    11.0139  11.0139

          k =-0.0718 0.0278-0.0000 ( 62285 PWs)   bands (ev):

   -56.2784 -56.2784 -56.2784 -56.2784 -56.2755 -56.2755 -56.2755 -56.2755
   -56.2607 -56.2607 -56.2607 -56.2607 -56.2556 -56.2556 -56.2555 -56.2555
   -56.2531 -56.2531 -56.2531 -56.2531 -56.2395 -56.2395 -56.2395 -56.2395
   -56.2274 -56.2274 -56.2274 -56.2274 -56.2237 -56.2237 -56.2237 -56.2237
   -56.2127 -56.2127 -56.2127 -56.2127 -56.2098 -56.2098 -56.2098 -56.2098
   -56.1945 -56.1945 -56.1945 -56.1945 -56.1935 -56.1935 -56.1935 -56.1935
   -56.1926 -56.1926 -56.1926 -56.1926 -56.1865 -56.1865 -56.1865 -56.1865
   -56.1836 -56.1836 -56.1835 -56.1835 -46.9320 -46.9320 -42.0671 -42.0671
   -41.7985 -41.7985 -41.7701 -41.7701 -20.7600 -20.7599 -20.7548 -20.7547
   -20.7545 -20.7544 -10.5293 -10.5064 -10.3820 -10.3711 -10.3065 -10.2933
   -10.2706 -10.2599 -10.2170 -10.2030 -10.1627 -10.1590  -0.0664   0.0041
     0.2762   0.3087   0.4103   0.4463   0.5531   0.5735   0.5954   0.6784
     0.8377   0.9495   0.9649   1.1094   1.1948   1.2153   1.3491   1.3603
     1.4728   1.5729   1.6344   1.6436   1.7719   1.7817   1.8843   1.8949
     2.0045   2.0117   2.0882   2.0894   2.1634   2.2050   2.2234   2.3063
     2.4285   2.4575   7.1774   7.2092   7.3181   7.3612   7.4240   7.4439
     8.6800   8.7124   8.9870   9.1141   9.3921   9.4037   9.5484   9.6551
     9.7476   9.7773  10.0008  10.2557  10.4185  10.4207  10.7119  10.7179
    10.9329  10.9560

          k =-0.0718 0.0278 0.0255 ( 62302 PWs)   bands (ev):

   -56.2784 -56.2784 -56.2784 -56.2784 -56.2755 -56.2755 -56.2755 -56.2755
   -56.2607 -56.2607 -56.2607 -56.2607 -56.2556 -56.2556 -56.2555 -56.2555
   -56.2531 -56.2531 -56.2531 -56.2531 -56.2395 -56.2395 -56.2395 -56.2395
   -56.2274 -56.2274 -56.2274 -56.2274 -56.2237 -56.2237 -56.2237 -56.2237
   -56.2127 -56.2127 -56.2127 -56.2127 -56.2098 -56.2098 -56.2098 -56.2098
   -56.1945 -56.1945 -56.1945 -56.1945 -56.1935 -56.1935 -56.1935 -56.1935
   -56.1927 -56.1927 -56.1926 -56.1926 -56.1865 -56.1865 -56.1865 -56.1865
   -56.1836 -56.1836 -56.1835 -56.1835 -46.9320 -46.9320 -42.0671 -42.0671
   -41.7985 -41.7985 -41.7701 -41.7701 -20.7600 -20.7599 -20.7548 -20.7547
   -20.7545 -20.7544 -10.5051 -10.4734 -10.3792 -10.3597 -10.3301 -10.3162
   -10.2684 -10.2463 -10.2335 -10.2041 -10.1775 -10.1703  -0.1621  -0.1103
     0.2571   0.2872   0.3549   0.3733   0.4532   0.4996   0.6203   0.6757
     0.8514   0.9646   1.0351   1.1276   1.2362   1.2466   1.4600   1.5092
     1.5870   1.6341   1.6699   1.6853   1.7474   1.7622   1.9118   1.9631
     2.0149   2.0192   2.1341   2.1511   2.1828   2.2000   2.2777   2.3535
     2.3871   2.4316   7.0804   7.1225   7.3023   7.3161   7.3659   7.3718
     8.7054   8.8101   8.8915   8.9213   9.1083   9.1189   9.3719   9.3754
     9.6599   9.7704  10.0955  10.1281  10.3791  10.4576  10.6127  10.6292
    10.9183  11.0031

          k =-0.0718 0.0278-0.1020 ( 62292 PWs)   bands (ev):

   -56.2784 -56.2784 -56.2784 -56.2784 -56.2755 -56.2755 -56.2755 -56.2755
   -56.2607 -56.2607 -56.2607 -56.2607 -56.2556 -56.2556 -56.2555 -56.2555
   -56.2531 -56.2531 -56.2531 -56.2531 -56.2395 -56.2395 -56.2395 -56.2395
   -56.2274 -56.2274 -56.2274 -56.2274 -56.2237 -56.2237 -56.2237 -56.2237
   -56.2127 -56.2127 -56.2127 -56.2127 -56.2098 -56.2098 -56.2098 -56.2098
   -56.1945 -56.1945 -56.1945 -56.1945 -56.1935 -56.1935 -56.1935 -56.1935
   -56.1927 -56.1927 -56.1926 -56.1926 -56.1865 -56.1865 -56.1865 -56.1865
   -56.1836 -56.1836 -56.1835 -56.1835 -46.9320 -46.9320 -42.0671 -42.0671
   -41.7985 -41.7985 -41.7701 -41.7701 -20.7600 -20.7600 -20.7548 -20.7548
   -20.7545 -20.7544 -10.4704 -10.4703 -10.3790 -10.3790 -10.3258 -10.3258
   -10.2556 -10.2556 -10.2198 -10.2198 -10.1821 -10.1821  -0.1818  -0.1818
     0.2415   0.2415   0.3274   0.3274   0.4636   0.4636   0.6650   0.6650
     0.9194   0.9194   1.1424   1.1425   1.2271   1.2271   1.5265   1.5265
     1.5989   1.5989   1.6905   1.6905   1.7307   1.7307   1.9485   1.9485
     2.1043   2.1044   2.1243   2.1243   2.2719   2.2719   2.3053   2.3053
     2.3954   2.3954   7.0504   7.0504   7.2900   7.2900   7.3344   7.3344
     8.6812   8.6812   8.8071   8.8071   9.1697   9.1697   9.2707   9.2707
     9.6715   9.6715  10.0968  10.0969  10.4073  10.4073  10.6390  10.6390
    10.9288  10.9288

     the Fermi energy is     4.8499 ev

!    total energy              =   -6740.55643876 Ry

     total all-electron energy =   -114993.572397 Ry
     estimated scf accuracy    <          9.7E-09 Ry
     smearing contrib. (-TS)   =      -0.00000000 Ry
     internal energy E=F+TS    =   -6740.55643876 Ry

     The total energy is F=E-TS. E is the sum of the following terms:
     one-electron contribution =   -3515.74977517 Ry
     hartree contribution      =    1687.82987403 Ry
     xc contribution           =    -503.20527301 Ry
     ewald contribution        =   -1690.68325647 Ry
     one-center paw contrib.   =   -2718.74800814 Ry

     convergence has been achieved in   9 iterations

     Forces acting on atoms (cartesian axes, Ry/au):

     atom    1 type  1   force =     0.00000000   -0.00206694    0.00000000
     atom    2 type  1   force =     0.00000000    0.00041379    0.00000000
     atom    3 type  1   force =     0.00000000   -0.00039873    0.00000000
     atom    4 type  1   force =     0.00000000   -0.00206349    0.00000000
     atom    5 type  1   force =     0.00000000    0.00041766    0.00000000
     atom    6 type  1   force =     0.00000000   -0.00039986    0.00000000
     atom    7 type  2   force =     0.00000000    0.00081115    0.00000000
     atom    8 type  2   force =     0.00000000    0.00081439    0.00000000
     atom    9 type  3   force =     0.00085872    0.00148383    0.00388053
     atom   10 type  3   force =     0.00317661   -0.00237158    0.00127110
     atom   11 type  3   force =    -0.00317661   -0.00237158   -0.00127110
     atom   12 type  3   force =    -0.00085872    0.00148383   -0.00388053
     atom   13 type  3   force =    -0.00316833    0.00148771    0.00334201
     atom   14 type  3   force =     0.00316833    0.00148771   -0.00334201
     atom   15 type  3   force =     0.00089111    0.00149056    0.00394294
     atom   16 type  3   force =     0.00317471   -0.00236872    0.00128911
     atom   17 type  3   force =    -0.00317471   -0.00236872   -0.00128911
     atom   18 type  3   force =    -0.00089111    0.00149056   -0.00394294
     atom   19 type  3   force =    -0.00313215    0.00151422    0.00335819
     atom   20 type  3   force =     0.00313215    0.00151422   -0.00335819

     Total force =     0.015704     Total SCF correction =     0.000319


     Computing stress (Cartesian axis) and pressure

          total   stress  (Ry/bohr**3)                   (kbar)     P=       -4.95
  -0.00003673   0.00000000   0.00000130           -5.40        0.00        0.19
   0.00000000  -0.00003834   0.00000000            0.00       -5.64        0.00
   0.00000130   0.00000000  -0.00002577            0.19        0.00       -3.79


     Writing output data file ./pwscf.save/
 
     init_run     :     20.89s CPU     21.41s WALL (       1 calls)
     electrons    :    516.16s CPU    522.77s WALL (       1 calls)
     forces       :      6.98s CPU      7.03s WALL (       1 calls)
     stress       :    100.71s CPU    101.14s WALL (       1 calls)

     Called by init_run:
     wfcinit      :      7.42s CPU      7.71s WALL (       1 calls)
     potinit      :      3.26s CPU      3.29s WALL (       1 calls)
     hinit0       :      0.94s CPU      1.06s WALL (       1 calls)

     Called by electrons:
     c_bands      :    448.13s CPU    453.52s WALL (      10 calls)
     sum_band     :     61.69s CPU     62.44s WALL (      10 calls)
     v_of_rho     :      0.49s CPU      0.50s WALL (      10 calls)
     newd         :      3.37s CPU      3.60s WALL (      10 calls)
     PAW_pot      :      2.69s CPU      2.71s WALL (      10 calls)
     mix_rho      :      0.11s CPU      0.12s WALL (      10 calls)

     Called by c_bands:
     init_us_2    :      3.09s CPU      3.11s WALL (     460 calls)
     cegterg      :    196.46s CPU    200.89s WALL (     200 calls)

     Called by *egterg:
     cdiaghg      :     31.06s CPU     31.49s WALL (    1074 calls)
     h_psi        :    113.38s CPU    115.67s WALL (    1114 calls)
     s_psi        :     11.89s CPU     11.94s WALL (    1114 calls)
     g_psi        :      0.60s CPU      0.61s WALL (     894 calls)

     Called by h_psi:
     h_psi:calbec :     11.54s CPU     11.59s WALL (    1114 calls)
     vloc_psi     :     88.42s CPU     89.65s WALL (    1114 calls)
     add_vuspsi   :     11.91s CPU     11.96s WALL (    1114 calls)

     General routines
     calbec       :     18.05s CPU     18.13s WALL (    1414 calls)
     fft          :      0.37s CPU      0.47s WALL (     154 calls)
     ffts         :      0.03s CPU      0.03s WALL (      20 calls)
     fftw         :     93.95s CPU     95.24s WALL (  172552 calls)
     interpolate  :      0.05s CPU      0.05s WALL (      10 calls)
 
     Parallel routines
     fft_scatt_xy :     16.86s CPU     17.07s WALL (  172726 calls)
     fft_scatt_yz :     30.47s CPU     30.91s WALL (  172726 calls)
 
     PWSCF        :  10m49.83s CPU  11m 2.87s WALL

 
   This run was terminated on:  17:44: 7   2Aug2021            

=------------------------------------------------------------------------------=
   JOB DONE.
=------------------------------------------------------------------------------=
