
     Program PWSCF v.6.7MaX starts on  2Aug2021 at 18: 2:41 

     This program is part of the open-source Quantum ESPRESSO suite
     for quantum simulation of materials; please cite
         "P. Giannozzi et al., J. Phys.:Condens. Matter 21 395502 (2009);
         "P. Giannozzi et al., J. Phys.:Condens. Matter 29 465901 (2017);
          URL http://www.quantum-espresso.org", 
     in publications or presentations arising from this work. More details at
     http://www.quantum-espresso.org/quote

     Parallel version (MPI), running on    48 processors

     MPI processes distributed on     2 nodes
     K-points division:     npool     =       2
     R & G space division:  proc/nbgrp/npool/nimage =      24
     Waiting for input...
     Reading input from standard input
Warning: card &CELL ignored
Warning: card CELL_DYNAMICS             = 'BFGS', ignored
Warning: card PRESS                     = '0.0', ignored
Warning: card PRESS_CONV_THR            = '0.5', ignored
Warning: card / ignored
     Message from routine read_cards :
     DEPRECATED: no units specified in CELL_PARAMETERS card

     Current dimensions of program PWSCF are:
     Max number of different atomic species (ntypx) = 10
     Max number of k-points (npk) =  40000
     Max angular momentum in pseudopotentials (lmaxx) =  3
     Message from routine cell_base_init:
     DEPRECATED: use true lattice parameter, not A to a.u. conversion factor
 end of file reached, closing tag not found
     file Er.pbe-spdn-kjpaw_psl.1.0.0.UPF: wavefunction(s)  6S 5D renormalized
     file Br.pbe-dn-kjpaw_psl.1.0.0.UPF: wavefunction(s)  4S 4P 3D renormalized

     Subspace diagonalization in iterative solution of the eigenvalue problem:
     a serial algorithm will be used

     Found symmetry operation: I + ( -0.5000 -0.5000  0.0000)
     This is a supercell, fractional translations are disabled
     Message from routine setup:
     using ibrav=0 with symmetry is DISCOURAGED, use correct ibrav instead
 
     Parallelization info
     --------------------
     sticks:   dense  smooth     PW     G-vecs:    dense   smooth      PW
     Min         296     237     66                13484     9650    1420
     Max         299     238     67                13485     9653    1423
     Sum        7129    5707   1597               323627   231643   34117
 


     bravais-lattice index     =            0
     lattice parameter (alat)  =       1.8897  a.u.
     unit-cell volume          =    3688.3023 (a.u.)^3
     number of atoms/cell      =           20
     number of atomic types    =            3
     number of electrons       =       244.00
     number of Kohn-Sham states=          146
     kinetic-energy cutoff     =      60.0000  Ry
     charge density cutoff     =     300.0000  Ry
     scf convergence threshold =      1.0E-08
     mixing beta               =       0.4000
     number of iterations used =            8  plain     mixing
     Exchange-correlation= SLA  PW   PBX  PBC
                           (   1   4   3   4   0   0   0)

     celldm(1)=   1.889726  celldm(2)=   0.000000  celldm(3)=   0.000000
     celldm(4)=   0.000000  celldm(5)=   0.000000  celldm(6)=   0.000000

     crystal axes: (cart. coord. in units of alat)
               a(1) = (   6.967356   0.000000   0.000000 )  
               a(2) = (   0.000000  11.998880   0.000000 )  
               a(3) = (  -2.324723   0.000000   6.537643 )  

     reciprocal axes: (cart. coord. in units 2 pi/alat)
               b(1) = (  0.143526  0.000000  0.051037 )  
               b(2) = (  0.000000  0.083341  0.000000 )  
               b(3) = (  0.000000  0.000000  0.152960 )  


     PseudoPot. # 1 for Li read from file:
     /central/groups/SeeGroup/qe_pseudopotentials/Li.pbe-s-kjpaw_psl.1.0.0.UPF
     MD5 check sum: cc502796ee09d8b62ac346ee26e59beb
     Pseudo is Projector augmented-wave, Zval =  3.0
     Generated using &quot;atomic&quot; code by A. Dal Corso  v.6.3
     Shape of augmentation charge: PSQ
     Using radial grid of 1017 points,  4 beta functions with: 
                l(1) =   0
                l(2) =   0
                l(3) =   1
                l(4) =   1
     Q(r) pseudized with 0 coefficients 


     PseudoPot. # 2 for Er read from file:
     /central/groups/SeeGroup/qe_pseudopotentials/Er.pbe-spdn-kjpaw_psl.1.0.0.UPF
     MD5 check sum: a923254af2aef992cff3e18bc73f2922
     Pseudo is Projector augmented-wave + core cor, Zval = 11.0
     Generated using &quot;atomic&quot; code by A. Dal Corso  v.6.2.2
     Shape of augmentation charge: PSQ
     Using radial grid of 1267 points,  6 beta functions with: 
                l(1) =   0
                l(2) =   0
                l(3) =   1
                l(4) =   1
                l(5) =   2
                l(6) =   2
     Q(r) pseudized with 0 coefficients 


     PseudoPot. # 3 for Br read from file:
     /central/groups/SeeGroup/qe_pseudopotentials/Br.pbe-dn-kjpaw_psl.1.0.0.UPF
     MD5 check sum: 4ca4ebabfd6065c7bb707b2ebe99e9b3
     Pseudo is Projector augmented-wave + core cor, Zval = 17.0
     Generated using &quot;atomic&quot; code by A. Dal Corso  v.6.3
     Shape of augmentation charge: PSQ
     Using radial grid of 1213 points,  6 beta functions with: 
                l(1) =   0
                l(2) =   0
                l(3) =   1
                l(4) =   1
                l(5) =   2
                l(6) =   2
     Q(r) pseudized with 0 coefficients 


     atomic species   valence    mass     pseudopotential
        Li             3.00     6.94100     Li( 1.00)
        Er            11.00   167.25900     Er( 1.00)
        Br            17.00    79.90400     Br( 1.00)

      2 Sym. Ops. (no inversion) found



   Cartesian axes

     site n.     atom                  positions (alat units)
         1           Li  tau(   1) = (   3.4836780   9.9564306   0.0000000  )
         2           Li  tau(   2) = (   3.4836780   2.0173957   0.0000000  )
         3           Li  tau(   3) = (   2.3213165   7.8846440   3.2688215  )
         4           Li  tau(   4) = (   0.0000000   3.9569906   0.0000000  )
         5           Li  tau(   5) = (   0.0000000   8.0168357   0.0000000  )
         6           Li  tau(   6) = (  -1.1623615   1.8852040   3.2688215  )
         7           Er  tau(   7) = (   3.4836780   5.9699947   0.0000000  )
         8           Er  tau(   8) = (   0.0000000  11.9694347   0.0000000  )
         9           Br  tau(   9) = (   3.4471523   9.9581465   5.0158758  )
        10           Br  tau(  10) = (   3.5847273   1.9854607   4.9258002  )
        11           Br  tau(  11) = (   1.0579057   1.9854607   1.6118428  )
        12           Br  tau(  12) = (   1.1954807   9.9581465   1.5217672  )
        13           Br  tau(  13) = (  -0.0150075   0.0698395   4.9769442  )
        14           Br  tau(  14) = (   4.6576405   0.0698395   1.5606988  )
        15           Br  tau(  15) = (  -0.0365257   3.9587065   5.0158758  )
        16           Br  tau(  16) = (   0.1010493   7.9849007   4.9258002  )
        17           Br  tau(  17) = (   4.5415837   7.9849007   1.6118428  )
        18           Br  tau(  18) = (   4.6791587   3.9587065   1.5217672  )
        19           Br  tau(  19) = (   3.4686705   6.0692795   4.9769442  )
        20           Br  tau(  20) = (   1.1739625   6.0692795   1.5606988  )

     number of k points=   102  Fermi-Dirac smearing, width (Ry)=  0.0070

     Number of k-points >= 100: set verbosity='high' to print them.

     Dense  grid:   323627 G-vectors     FFT dimensions: (  75, 125,  75)

     Smooth grid:   231643 G-vectors     FFT dimensions: (  72, 120,  72)

     Estimated max dynamical RAM per process >     181.16 MB

     Estimated total dynamical RAM >       8.49 GB

     Check: negative core charge=   -0.000002

     Initial potential from superposition of free atoms

     starting charge  243.93496, renormalised to  244.00000
     Starting wfcs are  164 randomized atomic wfcs
     Checking if some PAW data can be deallocated... 

     total cpu time spent up to now is       11.6 secs

     Self-consistent Calculation

     iteration #  1     ecut=    60.00 Ry     beta= 0.40
     Davidson diagonalization with overlap
     ethr =  1.00E-02,  avg # of iterations =  5.1

     Threshold (ethr) on eigenvalues was too large:
     Diagonalizing with lowered threshold

     Davidson diagonalization with overlap
     ethr =  1.16E-04,  avg # of iterations =  8.7

     total cpu time spent up to now is       93.4 secs

     total energy              =   -6740.44802128 Ry
     estimated scf accuracy    <       0.28216085 Ry

     iteration #  2     ecut=    60.00 Ry     beta= 0.40
     Davidson diagonalization with overlap
     ethr =  1.16E-04,  avg # of iterations =  2.0

     total cpu time spent up to now is      120.3 secs

     total energy              =   -6740.47352047 Ry
     estimated scf accuracy    <       0.03834826 Ry

     iteration #  3     ecut=    60.00 Ry     beta= 0.40
     Davidson diagonalization with overlap
     ethr =  1.57E-05,  avg # of iterations =  7.7

     total cpu time spent up to now is      165.3 secs

     total energy              =   -6740.47852913 Ry
     estimated scf accuracy    <       0.00530068 Ry

     iteration #  4     ecut=    60.00 Ry     beta= 0.40
     Davidson diagonalization with overlap
     ethr =  2.17E-06,  avg # of iterations =  8.9

     total cpu time spent up to now is      213.2 secs

     total energy              =   -6740.47918745 Ry
     estimated scf accuracy    <       0.00077070 Ry

     iteration #  5     ecut=    60.00 Ry     beta= 0.40
     Davidson diagonalization with overlap
     ethr =  3.16E-07,  avg # of iterations =  2.0

     total cpu time spent up to now is      239.1 secs

     total energy              =   -6740.47931454 Ry
     estimated scf accuracy    <       0.00019918 Ry

     iteration #  6     ecut=    60.00 Ry     beta= 0.40
     Davidson diagonalization with overlap
     ethr =  8.16E-08,  avg # of iterations =  2.0

     total cpu time spent up to now is      264.8 secs

     total energy              =   -6740.47933067 Ry
     estimated scf accuracy    <       0.00004002 Ry

     iteration #  7     ecut=    60.00 Ry     beta= 0.40
     Davidson diagonalization with overlap
     ethr =  1.64E-08,  avg # of iterations =  2.0

     total cpu time spent up to now is      290.7 secs

     total energy              =   -6740.47933265 Ry
     estimated scf accuracy    <       0.00000077 Ry

     iteration #  8     ecut=    60.00 Ry     beta= 0.40
     Davidson diagonalization with overlap
     ethr =  3.18E-10,  avg # of iterations =  2.0

     total cpu time spent up to now is      322.1 secs

     total energy              =   -6740.47933288 Ry
     estimated scf accuracy    <       0.00000014 Ry

     iteration #  9     ecut=    60.00 Ry     beta= 0.40
     Davidson diagonalization with overlap
     ethr =  5.77E-11,  avg # of iterations =  2.0

     total cpu time spent up to now is      348.2 secs

     End of self-consistent calculation

     Number of k-points >= 100: set verbosity='high' to print the bands.

     the Fermi energy is     4.8361 ev

!    total energy              =   -6740.47933302 Ry

     total all-electron energy =   -114993.495291 Ry
     estimated scf accuracy    <          7.5E-09 Ry
     smearing contrib. (-TS)   =      -0.00000000 Ry
     internal energy E=F+TS    =   -6740.47933302 Ry

     The total energy is F=E-TS. E is the sum of the following terms:
     one-electron contribution =   -3515.80762062 Ry
     hartree contribution      =    1688.13230930 Ry
     xc contribution           =    -503.26877842 Ry
     ewald contribution        =   -1690.68325647 Ry
     one-center paw contrib.   =   -2718.85198681 Ry

     convergence has been achieved in   9 iterations

     Forces acting on atoms (cartesian axes, Ry/au):

     atom    1 type  1   force =     0.00000000   -0.00195939    0.00000000
     atom    2 type  1   force =     0.00000000    0.00042000    0.00000000
     atom    3 type  1   force =     0.00000000   -0.00027319    0.00000000
     atom    4 type  1   force =     0.00000000   -0.00194713    0.00000000
     atom    5 type  1   force =     0.00000000    0.00042628    0.00000000
     atom    6 type  1   force =     0.00000000   -0.00026812    0.00000000
     atom    7 type  2   force =     0.00000000    0.00080706    0.00000000
     atom    8 type  2   force =     0.00000000    0.00082782    0.00000000
     atom    9 type  3   force =     0.00098956    0.00178541    0.00379942
     atom   10 type  3   force =     0.00309236   -0.00239167    0.00127731
     atom   11 type  3   force =    -0.00309236   -0.00239167   -0.00127731
     atom   12 type  3   force =    -0.00098956    0.00178541   -0.00379942
     atom   13 type  3   force =    -0.00329578    0.00148704    0.00334098
     atom   14 type  3   force =     0.00329578    0.00148704   -0.00334098
     atom   15 type  3   force =     0.00095188    0.00151009    0.00380935
     atom   16 type  3   force =     0.00308159   -0.00264452    0.00126104
     atom   17 type  3   force =    -0.00308159   -0.00264452   -0.00126104
     atom   18 type  3   force =    -0.00095188    0.00151009   -0.00380935
     atom   19 type  3   force =    -0.00318696    0.00123699    0.00336680
     atom   20 type  3   force =     0.00318696    0.00123699   -0.00336680

     Total force =     0.015703     Total SCF correction =     0.000363


     Computing stress (Cartesian axis) and pressure

          total   stress  (Ry/bohr**3)                   (kbar)     P=       -8.03
  -0.00005774   0.00000000   0.00000129           -8.49        0.00        0.19
   0.00000000  -0.00005936   0.00000000            0.00       -8.73        0.00
   0.00000129   0.00000000  -0.00004677            0.19        0.00       -6.88


     Writing output data file ./pwscf.save/
 
     init_run     :     10.78s CPU     11.10s WALL (       1 calls)
     electrons    :    333.38s CPU    336.72s WALL (       1 calls)
     forces       :      4.39s CPU      4.41s WALL (       1 calls)
     stress       :     38.20s CPU     38.30s WALL (       1 calls)

     Called by init_run:
     wfcinit      :      9.40s CPU      9.58s WALL (       1 calls)
     potinit      :      0.38s CPU      0.39s WALL (       1 calls)
     hinit0       :      0.51s CPU      0.62s WALL (       1 calls)

     Called by electrons:
     c_bands      :    299.76s CPU    302.38s WALL (      10 calls)
     sum_band     :     31.83s CPU     32.43s WALL (      10 calls)
     v_of_rho     :      0.24s CPU      0.24s WALL (      10 calls)
     newd         :      0.65s CPU      0.66s WALL (      10 calls)
     PAW_pot      :      0.97s CPU      0.98s WALL (      10 calls)
     mix_rho      :      0.05s CPU      0.05s WALL (      10 calls)

     Called by c_bands:
     init_us_2    :      3.11s CPU      3.13s WALL (    1173 calls)
     cegterg      :    269.97s CPU    272.40s WALL (     510 calls)

     Called by *egterg:
     cdiaghg      :     78.56s CPU     78.81s WALL (    2681 calls)
     h_psi        :    122.71s CPU    124.76s WALL (    2783 calls)
     s_psi        :     14.16s CPU     14.22s WALL (    2783 calls)
     g_psi        :      0.53s CPU      0.53s WALL (    2222 calls)

     Called by h_psi:
     h_psi:calbec :     15.73s CPU     15.81s WALL (    2783 calls)
     vloc_psi     :     91.06s CPU     92.94s WALL (    2783 calls)
     add_vuspsi   :     14.43s CPU     14.49s WALL (    2783 calls)

     General routines
     calbec       :     35.70s CPU     35.84s WALL (    3548 calls)
     fft          :      0.21s CPU      0.33s WALL (     154 calls)
     ffts         :      0.01s CPU      0.01s WALL (      20 calls)
     fftw         :    100.84s CPU    102.91s WALL (  442864 calls)
     interpolate  :      0.02s CPU      0.02s WALL (      10 calls)
 
     Parallel routines
     fft_scatt_xy :     13.73s CPU     13.99s WALL (  443038 calls)
     fft_scatt_yz :     39.78s CPU     40.60s WALL (  443038 calls)
 
     PWSCF        :   6m29.78s CPU   6m43.84s WALL

 
   This run was terminated on:  18: 9:25   2Aug2021            

=------------------------------------------------------------------------------=
   JOB DONE.
=------------------------------------------------------------------------------=
