
     Program PWSCF v.6.7MaX starts on  2Aug2021 at 17:19:22 

     This program is part of the open-source Quantum ESPRESSO suite
     for quantum simulation of materials; please cite
         "P. Giannozzi et al., J. Phys.:Condens. Matter 21 395502 (2009);
         "P. Giannozzi et al., J. Phys.:Condens. Matter 29 465901 (2017);
          URL http://www.quantum-espresso.org", 
     in publications or presentations arising from this work. More details at
     http://www.quantum-espresso.org/quote

     Parallel version (MPI), running on    48 processors

     MPI processes distributed on     2 nodes
     K-points division:     npool     =       2
     R & G space division:  proc/nbgrp/npool/nimage =      24
     Waiting for input...
     Reading input from standard input
Warning: card &CELL ignored
Warning: card CELL_DYNAMICS             = 'BFGS', ignored
Warning: card PRESS                     = '0.0', ignored
Warning: card PRESS_CONV_THR            = '0.5', ignored
Warning: card / ignored
     Message from routine read_cards :
     DEPRECATED: no units specified in CELL_PARAMETERS card

     Current dimensions of program PWSCF are:
     Max number of different atomic species (ntypx) = 10
     Max number of k-points (npk) =  40000
     Max angular momentum in pseudopotentials (lmaxx) =  3
     Message from routine cell_base_init:
     DEPRECATED: use true lattice parameter, not A to a.u. conversion factor
 end of file reached, closing tag not found
     file Er.pbe-spdn-kjpaw_psl.1.0.0.UPF: wavefunction(s)  6S 5D renormalized
     file Br.pbe-dn-kjpaw_psl.1.0.0.UPF: wavefunction(s)  4S 4P 3D renormalized

     Subspace diagonalization in iterative solution of the eigenvalue problem:
     a serial algorithm will be used

     Found symmetry operation: I + ( -0.5000 -0.5000  0.0000)
     This is a supercell, fractional translations are disabled
     Message from routine setup:
     using ibrav=0 with symmetry is DISCOURAGED, use correct ibrav instead
 
     Parallelization info
     --------------------
     sticks:   dense  smooth     PW     G-vecs:    dense   smooth      PW
     Min         296     237     66                13484     9650    1420
     Max         299     238     67                13485     9653    1423
     Sum        7129    5707   1597               323627   231643   34117
 


     bravais-lattice index     =            0
     lattice parameter (alat)  =       1.8897  a.u.
     unit-cell volume          =    3688.3023 (a.u.)^3
     number of atoms/cell      =           20
     number of atomic types    =            3
     number of electrons       =       244.00
     number of Kohn-Sham states=          146
     kinetic-energy cutoff     =      60.0000  Ry
     charge density cutoff     =     300.0000  Ry
     scf convergence threshold =      1.0E-08
     mixing beta               =       0.4000
     number of iterations used =            8  plain     mixing
     Exchange-correlation= SLA  PW   PBX  PBC
                           (   1   4   3   4   0   0   0)

     celldm(1)=   1.889726  celldm(2)=   0.000000  celldm(3)=   0.000000
     celldm(4)=   0.000000  celldm(5)=   0.000000  celldm(6)=   0.000000

     crystal axes: (cart. coord. in units of alat)
               a(1) = (   6.967356   0.000000   0.000000 )  
               a(2) = (   0.000000  11.998880   0.000000 )  
               a(3) = (  -2.324723   0.000000   6.537643 )  

     reciprocal axes: (cart. coord. in units 2 pi/alat)
               b(1) = (  0.143526  0.000000  0.051037 )  
               b(2) = (  0.000000  0.083341  0.000000 )  
               b(3) = (  0.000000  0.000000  0.152960 )  


     PseudoPot. # 1 for Li read from file:
     /central/groups/SeeGroup/qe_pseudopotentials/Li.pbe-s-kjpaw_psl.1.0.0.UPF
     MD5 check sum: cc502796ee09d8b62ac346ee26e59beb
     Pseudo is Projector augmented-wave, Zval =  3.0
     Generated using &quot;atomic&quot; code by A. Dal Corso  v.6.3
     Shape of augmentation charge: PSQ
     Using radial grid of 1017 points,  4 beta functions with: 
                l(1) =   0
                l(2) =   0
                l(3) =   1
                l(4) =   1
     Q(r) pseudized with 0 coefficients 


     PseudoPot. # 2 for Er read from file:
     /central/groups/SeeGroup/qe_pseudopotentials/Er.pbe-spdn-kjpaw_psl.1.0.0.UPF
     MD5 check sum: a923254af2aef992cff3e18bc73f2922
     Pseudo is Projector augmented-wave + core cor, Zval = 11.0
     Generated using &quot;atomic&quot; code by A. Dal Corso  v.6.2.2
     Shape of augmentation charge: PSQ
     Using radial grid of 1267 points,  6 beta functions with: 
                l(1) =   0
                l(2) =   0
                l(3) =   1
                l(4) =   1
                l(5) =   2
                l(6) =   2
     Q(r) pseudized with 0 coefficients 


     PseudoPot. # 3 for Br read from file:
     /central/groups/SeeGroup/qe_pseudopotentials/Br.pbe-dn-kjpaw_psl.1.0.0.UPF
     MD5 check sum: 4ca4ebabfd6065c7bb707b2ebe99e9b3
     Pseudo is Projector augmented-wave + core cor, Zval = 17.0
     Generated using &quot;atomic&quot; code by A. Dal Corso  v.6.3
     Shape of augmentation charge: PSQ
     Using radial grid of 1213 points,  6 beta functions with: 
                l(1) =   0
                l(2) =   0
                l(3) =   1
                l(4) =   1
                l(5) =   2
                l(6) =   2
     Q(r) pseudized with 0 coefficients 


     atomic species   valence    mass     pseudopotential
        Li             3.00     6.94100     Li( 1.00)
        Er            11.00   167.25900     Er( 1.00)
        Br            17.00    79.90400     Br( 1.00)

      2 Sym. Ops. (no inversion) found



   Cartesian axes

     site n.     atom                  positions (alat units)
         1           Li  tau(   1) = (   3.4836780   9.9564306   0.0000000  )
         2           Li  tau(   2) = (   3.4836780   2.0173957   0.0000000  )
         3           Li  tau(   3) = (   2.3213165   7.8846440   3.2688215  )
         4           Li  tau(   4) = (   0.0000000   3.9569906   0.0000000  )
         5           Li  tau(   5) = (   0.0000000   8.0168357   0.0000000  )
         6           Li  tau(   6) = (  -1.1623615   1.8852040   3.2688215  )
         7           Er  tau(   7) = (   3.4836780   5.9699947   0.0000000  )
         8           Er  tau(   8) = (   0.0000000  11.9694347   0.0000000  )
         9           Br  tau(   9) = (   3.4471523   9.9581465   5.0158758  )
        10           Br  tau(  10) = (   3.5847273   1.9854607   4.9258002  )
        11           Br  tau(  11) = (   1.0579057   1.9854607   1.6118428  )
        12           Br  tau(  12) = (   1.1954807   9.9581465   1.5217672  )
        13           Br  tau(  13) = (  -0.0150075   0.0698395   4.9769442  )
        14           Br  tau(  14) = (   4.6576405   0.0698395   1.5606988  )
        15           Br  tau(  15) = (  -0.0365257   3.9587065   5.0158758  )
        16           Br  tau(  16) = (   0.1010493   7.9849007   4.9258002  )
        17           Br  tau(  17) = (   4.5415837   7.9849007   1.6118428  )
        18           Br  tau(  18) = (   4.6791587   3.9587065   1.5217672  )
        19           Br  tau(  19) = (   3.4686705   6.0692795   4.9769442  )
        20           Br  tau(  20) = (   1.1739625   6.0692795   1.5606988  )

     number of k points=    20  Fermi-Dirac smearing, width (Ry)=  0.0070
                       cart. coord. in units 2pi/alat
        k(    1) = (   0.0000000   0.0000000   0.0000000), wk =   0.0625000
        k(    2) = (   0.0000000   0.0000000   0.0382401), wk =   0.1250000
        k(    3) = (   0.0000000   0.0000000  -0.0764802), wk =   0.0625000
        k(    4) = (   0.0000000  -0.0416706   0.0000000), wk =   0.0625000
        k(    5) = (   0.0000000  -0.0416706   0.0382401), wk =   0.1250000
        k(    6) = (   0.0000000  -0.0416706  -0.0764802), wk =   0.0625000
        k(    7) = (   0.0358816   0.0000000   0.0127592), wk =   0.1250000
        k(    8) = (   0.0358816   0.0000000   0.0509992), wk =   0.1250000
        k(    9) = (   0.0358816   0.0000000  -0.0637210), wk =   0.1250000
        k(   10) = (   0.0358816   0.0000000  -0.0254809), wk =   0.1250000
        k(   11) = (   0.0358816  -0.0416706   0.0127592), wk =   0.1250000
        k(   12) = (   0.0358816  -0.0416706   0.0509992), wk =   0.1250000
        k(   13) = (   0.0358816  -0.0416706  -0.0637210), wk =   0.1250000
        k(   14) = (   0.0358816  -0.0416706  -0.0254809), wk =   0.1250000
        k(   15) = (  -0.0717632   0.0000000  -0.0255183), wk =   0.0625000
        k(   16) = (  -0.0717632   0.0000000   0.0127218), wk =   0.1250000
        k(   17) = (  -0.0717632   0.0000000  -0.1019985), wk =   0.0625000
        k(   18) = (  -0.0717632  -0.0416706  -0.0255183), wk =   0.0625000
        k(   19) = (  -0.0717632  -0.0416706   0.0127218), wk =   0.1250000
        k(   20) = (  -0.0717632  -0.0416706  -0.1019985), wk =   0.0625000

     Dense  grid:   323627 G-vectors     FFT dimensions: (  75, 125,  75)

     Smooth grid:   231643 G-vectors     FFT dimensions: (  72, 120,  72)

     Estimated max dynamical RAM per process >      71.00 MB

     Estimated total dynamical RAM >       3.33 GB

     Check: negative core charge=   -0.000002

     Initial potential from superposition of free atoms

     starting charge  243.93496, renormalised to  244.00000
     Starting wfcs are  164 randomized atomic wfcs
     Checking if some PAW data can be deallocated... 

     total cpu time spent up to now is        3.6 secs

     Self-consistent Calculation

     iteration #  1     ecut=    60.00 Ry     beta= 0.40
     Davidson diagonalization with overlap
     ethr =  1.00E-02,  avg # of iterations =  5.0

     Threshold (ethr) on eigenvalues was too large:
     Diagonalizing with lowered threshold

     Davidson diagonalization with overlap
     c_bands:  1 eigenvalues not converged
     ethr =  1.16E-04,  avg # of iterations =  9.1

     total cpu time spent up to now is       20.5 secs

     total energy              =   -6740.44802005 Ry
     estimated scf accuracy    <       0.28215475 Ry

     iteration #  2     ecut=    60.00 Ry     beta= 0.40
     Davidson diagonalization with overlap
     ethr =  1.16E-04,  avg # of iterations =  2.0

     total cpu time spent up to now is       26.0 secs

     total energy              =   -6740.47350929 Ry
     estimated scf accuracy    <       0.03834467 Ry

     iteration #  3     ecut=    60.00 Ry     beta= 0.40
     Davidson diagonalization with overlap
     ethr =  1.57E-05,  avg # of iterations =  6.7

     total cpu time spent up to now is       34.8 secs

     total energy              =   -6740.47851886 Ry
     estimated scf accuracy    <       0.00530074 Ry

     iteration #  4     ecut=    60.00 Ry     beta= 0.40
     Davidson diagonalization with overlap
     ethr =  2.17E-06,  avg # of iterations =  7.1

     total cpu time spent up to now is       43.2 secs

     total energy              =   -6740.47917645 Ry
     estimated scf accuracy    <       0.00076487 Ry

     iteration #  5     ecut=    60.00 Ry     beta= 0.40
     Davidson diagonalization with overlap
     ethr =  3.13E-07,  avg # of iterations =  2.0

     total cpu time spent up to now is       48.6 secs

     total energy              =   -6740.47930206 Ry
     estimated scf accuracy    <       0.00020162 Ry

     iteration #  6     ecut=    60.00 Ry     beta= 0.40
     Davidson diagonalization with overlap
     ethr =  8.26E-08,  avg # of iterations =  2.0

     total cpu time spent up to now is       53.9 secs

     total energy              =   -6740.47931845 Ry
     estimated scf accuracy    <       0.00004012 Ry

     iteration #  7     ecut=    60.00 Ry     beta= 0.40
     Davidson diagonalization with overlap
     ethr =  1.64E-08,  avg # of iterations =  2.0

     total cpu time spent up to now is       59.3 secs

     total energy              =   -6740.47932042 Ry
     estimated scf accuracy    <       0.00000078 Ry

     iteration #  8     ecut=    60.00 Ry     beta= 0.40
     Davidson diagonalization with overlap
     ethr =  3.20E-10,  avg # of iterations =  2.0

     total cpu time spent up to now is       65.8 secs

     total energy              =   -6740.47932067 Ry
     estimated scf accuracy    <       0.00000012 Ry

     iteration #  9     ecut=    60.00 Ry     beta= 0.40
     Davidson diagonalization with overlap
     ethr =  5.03E-11,  avg # of iterations =  2.0

     total cpu time spent up to now is       71.2 secs

     End of self-consistent calculation

          k = 0.0000 0.0000 0.0000 ( 28943 PWs)   bands (ev):

   -56.2566 -56.2566 -56.2566 -56.2565 -56.2537 -56.2536 -56.2536 -56.2536
   -56.2389 -56.2389 -56.2389 -56.2389 -56.2336 -56.2336 -56.2336 -56.2335
   -56.2312 -56.2312 -56.2312 -56.2312 -56.2177 -56.2177 -56.2176 -56.2176
   -56.2056 -56.2055 -56.2055 -56.2055 -56.2018 -56.2018 -56.2018 -56.2018
   -56.1911 -56.1911 -56.1910 -56.1910 -56.1882 -56.1882 -56.1880 -56.1880
   -56.1726 -56.1726 -56.1726 -56.1726 -56.1716 -56.1716 -56.1716 -56.1716
   -56.1710 -56.1710 -56.1709 -56.1709 -56.1648 -56.1648 -56.1646 -56.1646
   -56.1619 -56.1619 -56.1618 -56.1618 -46.9291 -46.9291 -42.0706 -42.0705
   -41.8027 -41.8027 -41.7743 -41.7742 -20.7578 -20.7577 -20.7524 -20.7524
   -20.7523 -20.7521 -10.7205 -10.5397 -10.3937 -10.2874 -10.2776 -10.2683
   -10.2359 -10.2312 -10.2236 -10.1592 -10.1538 -10.1280  -0.1649  -0.1559
     0.2213   0.2472   0.2642   0.4082   0.4573   0.6231   0.6758   0.7446
     0.8653   0.8654   0.8742   0.9995   1.1278   1.2431   1.2653   1.2690
     1.2755   1.4838   1.5264   1.6962   1.7412   1.9398   1.9822   2.0181
     2.0563   2.0740   2.1882   2.2417   2.3334   2.4633   2.5292   2.5293
     2.5742   2.5803   7.0494   7.3106   7.4465   7.4694   7.4730   7.5200
     7.5533   8.7246   8.7570   8.8085   9.1169   9.1671   9.3662   9.3998
     9.4917   9.7339   9.9252  10.3244  10.3254  10.3769  10.7023  10.8937
    10.9492  11.1007

          k = 0.0000 0.0000 0.0382 ( 28952 PWs)   bands (ev):

   -56.2566 -56.2566 -56.2565 -56.2565 -56.2537 -56.2537 -56.2536 -56.2536
   -56.2389 -56.2389 -56.2389 -56.2389 -56.2336 -56.2336 -56.2336 -56.2335
   -56.2312 -56.2312 -56.2312 -56.2312 -56.2177 -56.2177 -56.2176 -56.2176
   -56.2056 -56.2055 -56.2055 -56.2055 -56.2018 -56.2018 -56.2018 -56.2018
   -56.1911 -56.1910 -56.1910 -56.1910 -56.1882 -56.1882 -56.1880 -56.1880
   -56.1726 -56.1726 -56.1726 -56.1726 -56.1716 -56.1716 -56.1716 -56.1716
   -56.1710 -56.1710 -56.1709 -56.1709 -56.1648 -56.1648 -56.1646 -56.1646
   -56.1619 -56.1618 -56.1618 -56.1618 -46.9291 -46.9291 -42.0706 -42.0705
   -41.8028 -41.8027 -41.7743 -41.7742 -20.7578 -20.7578 -20.7524 -20.7524
   -20.7523 -20.7521 -10.6746 -10.5050 -10.3745 -10.3097 -10.2917 -10.2862
   -10.2553 -10.2399 -10.2217 -10.1765 -10.1650 -10.1321  -0.0710   0.0212
     0.2560   0.2943   0.3303   0.3720   0.4427   0.5151   0.6850   0.8216
     0.8248   0.9437   0.9522   1.0472   1.0749   1.2007   1.2790   1.3111
     1.4275   1.4451   1.4509   1.6109   1.7861   1.9450   1.9547   2.0235
     2.0532   2.0987   2.1321   2.1655   2.2493   2.2516   2.3228   2.4596
     2.4951   2.5040   7.1717   7.2718   7.3140   7.3866   7.4940   7.5483
     8.0757   8.8106   8.8553   8.8849   9.1532   9.3185   9.3416   9.5250
     9.7979   9.8774  10.1404  10.2204  10.3989  10.6877  10.7107  10.8635
    10.9658  10.9804

          k = 0.0000 0.0000-0.0765 ( 28930 PWs)   bands (ev):

   -56.2566 -56.2566 -56.2565 -56.2565 -56.2537 -56.2536 -56.2536 -56.2536
   -56.2389 -56.2389 -56.2389 -56.2389 -56.2336 -56.2336 -56.2336 -56.2335
   -56.2312 -56.2312 -56.2312 -56.2312 -56.2177 -56.2176 -56.2176 -56.2176
   -56.2056 -56.2055 -56.2055 -56.2055 -56.2018 -56.2018 -56.2018 -56.2018
   -56.1911 -56.1910 -56.1910 -56.1909 -56.1882 -56.1881 -56.1880 -56.1880
   -56.1726 -56.1726 -56.1726 -56.1725 -56.1716 -56.1716 -56.1716 -56.1716
   -56.1710 -56.1710 -56.1709 -56.1709 -56.1648 -56.1648 -56.1646 -56.1646
   -56.1619 -56.1618 -56.1618 -56.1617 -46.9291 -46.9291 -42.0706 -42.0705
   -41.8027 -41.8027 -41.7743 -41.7742 -20.7578 -20.7578 -20.7524 -20.7524
   -20.7524 -20.7521 -10.6094 -10.4569 -10.3789 -10.3436 -10.3185 -10.2840
   -10.2718 -10.2569 -10.2398 -10.1821 -10.1623 -10.1412   0.0267   0.1851
     0.1945   0.2519   0.3976   0.4998   0.5841   0.6777   0.6895   0.7359
     0.7858   0.9508   0.9926   1.0472   1.0962   1.2100   1.2727   1.3616
     1.3905   1.4557   1.4675   1.5335   1.6702   1.7964   1.8880   1.9010
     1.9552   2.0708   2.1230   2.1344   2.1450   2.2887   2.2996   2.3358
     2.4580   2.4609   7.1935   7.2199   7.2535   7.3286   7.4896   7.5794
     8.6466   8.8017   8.9141   9.0818   9.1956   9.4483   9.8960   9.9644
     9.9698  10.0482  10.0519  10.1933  10.2742  10.3116  10.7778  10.8268
    10.9901  10.9956

          k = 0.0000-0.0417 0.0000 ( 28908 PWs)   bands (ev):

   -56.2566 -56.2566 -56.2565 -56.2565 -56.2537 -56.2536 -56.2536 -56.2536
   -56.2389 -56.2389 -56.2389 -56.2389 -56.2336 -56.2336 -56.2336 -56.2335
   -56.2312 -56.2312 -56.2312 -56.2312 -56.2176 -56.2176 -56.2176 -56.2176
   -56.2055 -56.2055 -56.2055 -56.2055 -56.2018 -56.2018 -56.2018 -56.2018
   -56.1911 -56.1910 -56.1910 -56.1910 -56.1882 -56.1882 -56.1880 -56.1880
   -56.1726 -56.1726 -56.1726 -56.1726 -56.1716 -56.1716 -56.1716 -56.1716
   -56.1710 -56.1709 -56.1709 -56.1709 -56.1648 -56.1648 -56.1646 -56.1646
   -56.1618 -56.1618 -56.1618 -56.1618 -46.9291 -46.9291 -42.0706 -42.0705
   -41.8027 -41.8026 -41.7743 -41.7742 -20.7578 -20.7578 -20.7523 -20.7523
   -20.7523 -20.7523 -10.6524 -10.6524 -10.3165 -10.3165 -10.2886 -10.2886
   -10.1933 -10.1933 -10.1811 -10.1811 -10.1775 -10.1775  -0.1205  -0.1205
     0.1083   0.1083   0.3384   0.3384   0.5137   0.5137   0.7139   0.7139
     0.8500   0.8501   1.0673   1.0673   1.1430   1.1430   1.3258   1.3258
     1.4273   1.4273   1.7554   1.7554   1.8696   1.8696   1.9404   1.9404
     1.9773   1.9773   2.2799   2.2799   2.3272   2.3273   2.4136   2.4136
     2.5476   2.5476   7.2725   7.2725   7.4585   7.4585   7.4818   7.4818
     8.1201   8.1201   8.8896   8.8896   9.1019   9.1019   9.3648   9.3648
     9.5966   9.5966  10.1343  10.1343  10.2507  10.2507  10.8510  10.8510
    11.1287  11.1288

          k = 0.0000-0.0417 0.0382 ( 28964 PWs)   bands (ev):

   -56.2566 -56.2566 -56.2565 -56.2565 -56.2537 -56.2536 -56.2536 -56.2536
   -56.2389 -56.2389 -56.2389 -56.2389 -56.2336 -56.2336 -56.2336 -56.2335
   -56.2312 -56.2312 -56.2312 -56.2312 -56.2177 -56.2177 -56.2176 -56.2176
   -56.2056 -56.2055 -56.2055 -56.2055 -56.2018 -56.2018 -56.2018 -56.2018
   -56.1911 -56.1910 -56.1910 -56.1910 -56.1882 -56.1882 -56.1880 -56.1880
   -56.1726 -56.1726 -56.1726 -56.1726 -56.1716 -56.1716 -56.1716 -56.1716
   -56.1710 -56.1710 -56.1709 -56.1709 -56.1648 -56.1648 -56.1646 -56.1646
   -56.1619 -56.1618 -56.1618 -56.1617 -46.9291 -46.9291 -42.0706 -42.0705
   -41.8028 -41.8027 -41.7743 -41.7742 -20.7578 -20.7578 -20.7524 -20.7524
   -20.7523 -20.7523 -10.6103 -10.6103 -10.3243 -10.3243 -10.2963 -10.2963
   -10.2101 -10.2101 -10.2058 -10.2058 -10.1693 -10.1693  -0.0283  -0.0283
     0.2310   0.2310   0.3666   0.3666   0.4780   0.4780   0.6059   0.6059
     0.9332   0.9332   1.0457   1.0457   1.2387   1.2387   1.3516   1.3516
     1.5517   1.5517   1.6634   1.6634   1.7811   1.7811   1.8811   1.8811
     1.9715   1.9715   2.1535   2.1535   2.2633   2.2633   2.3667   2.3667
     2.4386   2.4386   7.3316   7.3316   7.3793   7.3793   7.4429   7.4429
     8.4523   8.4523   8.9350   8.9350   9.2565   9.2565   9.6375   9.6375
     9.9074   9.9075   9.9563   9.9563  10.5103  10.5103  10.5750  10.5750
    10.9445  10.9445

          k = 0.0000-0.0417-0.0765 ( 29020 PWs)   bands (ev):

   -56.2566 -56.2566 -56.2565 -56.2565 -56.2537 -56.2537 -56.2537 -56.2536
   -56.2389 -56.2389 -56.2389 -56.2389 -56.2336 -56.2336 -56.2336 -56.2336
   -56.2312 -56.2312 -56.2312 -56.2312 -56.2177 -56.2177 -56.2177 -56.2176
   -56.2056 -56.2056 -56.2055 -56.2055 -56.2019 -56.2018 -56.2018 -56.2018
   -56.1911 -56.1911 -56.1910 -56.1910 -56.1882 -56.1882 -56.1880 -56.1880
   -56.1726 -56.1726 -56.1726 -56.1726 -56.1716 -56.1716 -56.1716 -56.1716
   -56.1710 -56.1710 -56.1709 -56.1709 -56.1648 -56.1648 -56.1646 -56.1646
   -56.1619 -56.1619 -56.1618 -56.1618 -46.9291 -46.9291 -42.0706 -42.0705
   -41.8028 -41.8027 -41.7743 -41.7743 -20.7578 -20.7578 -20.7524 -20.7524
   -20.7523 -20.7523 -10.5495 -10.5494 -10.3678 -10.3678 -10.2989 -10.2989
   -10.2316 -10.2316 -10.1924 -10.1924 -10.1824 -10.1824   0.0555   0.0555
     0.2460   0.2460   0.3770   0.3771   0.6031   0.6031   0.7508   0.7509
     0.9822   0.9823   0.9861   0.9861   1.2439   1.2439   1.2481   1.2481
     1.4928   1.4928   1.5610   1.5610   1.8067   1.8067   1.9007   1.9007
     1.9849   1.9849   1.9984   1.9984   2.1986   2.1986   2.2934   2.2934
     2.3962   2.3962   7.2858   7.2858   7.3464   7.3465   7.4726   7.4727
     8.6026   8.6026   9.2113   9.2113   9.5020   9.5020   9.8018   9.8018
    10.0314  10.0314  10.0375  10.0375  10.5280  10.5280  10.6012  10.6012
    11.2003  11.2005

          k = 0.0359 0.0000 0.0128 ( 28934 PWs)   bands (ev):

   -56.2566 -56.2566 -56.2565 -56.2565 -56.2537 -56.2536 -56.2536 -56.2536
   -56.2389 -56.2389 -56.2389 -56.2389 -56.2336 -56.2336 -56.2336 -56.2335
   -56.2312 -56.2312 -56.2312 -56.2312 -56.2177 -56.2176 -56.2176 -56.2176
   -56.2055 -56.2055 -56.2055 -56.2055 -56.2018 -56.2018 -56.2018 -56.2018
   -56.1911 -56.1911 -56.1910 -56.1910 -56.1882 -56.1882 -56.1880 -56.1880
   -56.1726 -56.1726 -56.1726 -56.1726 -56.1716 -56.1716 -56.1716 -56.1716
   -56.1710 -56.1710 -56.1709 -56.1709 -56.1648 -56.1648 -56.1646 -56.1646
   -56.1619 -56.1619 -56.1618 -56.1618 -46.9291 -46.9291 -42.0706 -42.0705
   -41.8027 -41.8027 -41.7743 -41.7742 -20.7578 -20.7577 -20.7524 -20.7524
   -20.7524 -20.7522 -10.6648 -10.5038 -10.3750 -10.3318 -10.2968 -10.2749
   -10.2442 -10.2418 -10.2183 -10.1886 -10.1528 -10.1397  -0.0882   0.0508
     0.2804   0.2807   0.3485   0.3979   0.4525   0.5335   0.7046   0.7607
     0.8357   0.8439   0.8948   0.9700   1.0422   1.1362   1.3542   1.3648
     1.4039   1.5096   1.6321   1.6876   1.8145   1.8455   1.9299   2.0116
     2.0120   2.0958   2.1346   2.1515   2.2281   2.2412   2.3263   2.4746
     2.4859   2.5258   7.1655   7.3396   7.3893   7.3951   7.4267   7.4506
     8.0732   8.8510   8.9062   8.9723   9.0363   9.0429   9.4273   9.7020
     9.7082   9.9666  10.0989  10.2256  10.4021  10.5571  10.6543  10.8266
    10.9930  11.1024

          k = 0.0359 0.0000 0.0510 ( 28952 PWs)   bands (ev):

   -56.2566 -56.2566 -56.2565 -56.2565 -56.2537 -56.2536 -56.2536 -56.2536
   -56.2389 -56.2389 -56.2389 -56.2389 -56.2336 -56.2336 -56.2336 -56.2336
   -56.2312 -56.2312 -56.2312 -56.2312 -56.2177 -56.2177 -56.2176 -56.2176
   -56.2055 -56.2055 -56.2055 -56.2055 -56.2018 -56.2018 -56.2018 -56.2018
   -56.1911 -56.1910 -56.1910 -56.1910 -56.1882 -56.1882 -56.1880 -56.1880
   -56.1726 -56.1726 -56.1726 -56.1726 -56.1716 -56.1716 -56.1716 -56.1716
   -56.1710 -56.1710 -56.1709 -56.1709 -56.1648 -56.1648 -56.1646 -56.1646
   -56.1619 -56.1619 -56.1618 -56.1618 -46.9291 -46.9291 -42.0706 -42.0705
   -41.8028 -41.8027 -41.7743 -41.7742 -20.7578 -20.7578 -20.7525 -20.7524
   -20.7524 -20.7522 -10.6013 -10.4623 -10.3635 -10.3395 -10.3342 -10.2793
   -10.2666 -10.2522 -10.2503 -10.1955 -10.1599 -10.1411   0.0760   0.1302
     0.2364   0.2756   0.4738   0.4900   0.5482   0.5816   0.6423   0.7435
     0.7540   0.8941   1.0496   1.0551   1.0598   1.1641   1.2756   1.2880
     1.3436   1.4353   1.5832   1.6910   1.7590   1.8693   1.9351   1.9595
     1.9965   2.0020   2.0756   2.1413   2.2191   2.2256   2.2327   2.2606
     2.3715   2.4920   7.1937   7.2451   7.3581   7.3702   7.4707   7.4812
     8.6559   8.6952   8.9636   9.0090   9.0268   9.5168   9.5720   9.7954
     9.8800  10.0203  10.1279  10.2608  10.2732  10.5386  10.5787  10.8162
    11.0990  11.3133

          k = 0.0359 0.0000-0.0637 ( 28950 PWs)   bands (ev):

   -56.2566 -56.2566 -56.2566 -56.2565 -56.2537 -56.2536 -56.2536 -56.2536
   -56.2389 -56.2389 -56.2389 -56.2389 -56.2336 -56.2336 -56.2336 -56.2335
   -56.2312 -56.2312 -56.2312 -56.2312 -56.2177 -56.2176 -56.2176 -56.2176
   -56.2055 -56.2055 -56.2055 -56.2055 -56.2019 -56.2018 -56.2018 -56.2018
   -56.1911 -56.1910 -56.1910 -56.1910 -56.1882 -56.1882 -56.1880 -56.1880
   -56.1726 -56.1726 -56.1726 -56.1726 -56.1716 -56.1716 -56.1716 -56.1716
   -56.1710 -56.1710 -56.1709 -56.1709 -56.1648 -56.1648 -56.1646 -56.1646
   -56.1619 -56.1619 -56.1618 -56.1618 -46.9291 -46.9291 -42.0706 -42.0705
   -41.8028 -41.8027 -41.7743 -41.7742 -20.7578 -20.7578 -20.7525 -20.7525
   -20.7524 -20.7522 -10.5725 -10.4317 -10.3642 -10.3589 -10.3112 -10.2980
   -10.2929 -10.2604 -10.2503 -10.1744 -10.1692 -10.1650  -0.0068  -0.0049
     0.2143   0.2241   0.3980   0.4171   0.4825   0.5534   0.5792   0.6689
     0.7195   0.9239   1.0865   1.1155   1.1901   1.2609   1.3883   1.4576
     1.4581   1.6384   1.7133   1.7153   1.7660   1.8650   1.8879   1.8925
     1.9599   1.9916   2.0652   2.1425   2.1942   2.2624   2.2839   2.2996
     2.4257   2.4746   7.1166   7.1997   7.2719   7.2899   7.3768   7.4575
     8.6693   8.7350   9.1000   9.1392   9.1753   9.2461   9.5223   9.5454
     9.6907   9.8521   9.8947  10.0044  10.0576  10.1275  10.3385  10.4863
    11.0543  11.2157

          k = 0.0359 0.0000-0.0255 ( 28931 PWs)   bands (ev):

   -56.2566 -56.2566 -56.2565 -56.2565 -56.2536 -56.2536 -56.2536 -56.2536
   -56.2389 -56.2389 -56.2389 -56.2389 -56.2336 -56.2336 -56.2336 -56.2335
   -56.2312 -56.2312 -56.2312 -56.2312 -56.2177 -56.2176 -56.2176 -56.2176
   -56.2055 -56.2055 -56.2055 -56.2055 -56.2018 -56.2018 -56.2018 -56.2018
   -56.1911 -56.1910 -56.1910 -56.1910 -56.1882 -56.1882 -56.1880 -56.1880
   -56.1726 -56.1726 -56.1726 -56.1726 -56.1716 -56.1716 -56.1716 -56.1716
   -56.1710 -56.1710 -56.1709 -56.1709 -56.1648 -56.1648 -56.1646 -56.1646
   -56.1619 -56.1618 -56.1618 -56.1617 -46.9291 -46.9291 -42.0706 -42.0705
   -41.8028 -41.8027 -41.7743 -41.7742 -20.7578 -20.7578 -20.7525 -20.7524
   -20.7524 -20.7522 -10.6471 -10.4854 -10.3633 -10.3157 -10.3085 -10.2784
   -10.2668 -10.2447 -10.2274 -10.1805 -10.1622 -10.1556  -0.1306  -0.0241
     0.1964   0.2578   0.2993   0.3521   0.4024   0.4220   0.5398   0.6297
     0.7275   0.9004   1.0555   1.1005   1.2407   1.3176   1.3706   1.4450
     1.5825   1.6848   1.7017   1.7683   1.7929   1.8059   1.8526   1.9411
     2.0097   2.0635   2.1223   2.1460   2.3165   2.3400   2.4005   2.4150
     2.4667   2.5389   7.1100   7.2372   7.2604   7.3426   7.3711   7.4219
     8.1054   8.7314   8.9278   9.0156   9.1821   9.2742   9.4245   9.5276
     9.5698   9.7719   9.7992   9.9375   9.9905  10.2257  10.2441  10.3178
    10.8674  11.1922

          k = 0.0359-0.0417 0.0128 ( 28934 PWs)   bands (ev):

   -56.2566 -56.2566 -56.2565 -56.2565 -56.2536 -56.2536 -56.2536 -56.2536
   -56.2389 -56.2389 -56.2389 -56.2389 -56.2336 -56.2336 -56.2336 -56.2335
   -56.2312 -56.2312 -56.2312 -56.2312 -56.2177 -56.2176 -56.2176 -56.2176
   -56.2055 -56.2055 -56.2055 -56.2055 -56.2018 -56.2018 -56.2018 -56.2018
   -56.1911 -56.1911 -56.1910 -56.1910 -56.1882 -56.1881 -56.1880 -56.1880
   -56.1726 -56.1726 -56.1726 -56.1726 -56.1716 -56.1716 -56.1716 -56.1716
   -56.1710 -56.1710 -56.1709 -56.1709 -56.1648 -56.1648 -56.1646 -56.1646
   -56.1619 -56.1618 -56.1618 -56.1618 -46.9291 -46.9291 -42.0706 -42.0705
   -41.8027 -41.8027 -41.7743 -41.7742 -20.7577 -20.7577 -20.7524 -20.7524
   -20.7522 -20.7522 -10.6042 -10.6042 -10.3181 -10.3181 -10.3042 -10.3041
   -10.2320 -10.2320 -10.1979 -10.1978 -10.1599 -10.1599  -0.0257  -0.0257
     0.2460   0.2460   0.3244   0.3245   0.5315   0.5315   0.5958   0.5959
     0.8856   0.8856   1.0619   1.0619   1.2769   1.2769   1.3788   1.3788
     1.4918   1.4918   1.6740   1.6741   1.7193   1.7193   1.8680   1.8681
     2.0351   2.0352   2.1272   2.1272   2.3073   2.3073   2.3473   2.3473
     2.4498   2.4498   7.3375   7.3375   7.3982   7.3982   7.4120   7.4120
     8.4257   8.4257   9.0255   9.0255   9.1362   9.1362   9.6105   9.6105
     9.8666   9.8666  10.1491  10.1491  10.3961  10.3961  10.5457  10.5457
    11.0765  11.0766

          k = 0.0359-0.0417 0.0510 ( 28962 PWs)   bands (ev):

   -56.2566 -56.2566 -56.2566 -56.2565 -56.2536 -56.2536 -56.2536 -56.2536
   -56.2389 -56.2389 -56.2389 -56.2389 -56.2336 -56.2336 -56.2336 -56.2336
   -56.2312 -56.2312 -56.2312 -56.2312 -56.2177 -56.2177 -56.2176 -56.2176
   -56.2056 -56.2055 -56.2055 -56.2055 -56.2018 -56.2018 -56.2018 -56.2018
   -56.1911 -56.1911 -56.1910 -56.1910 -56.1882 -56.1882 -56.1880 -56.1880
   -56.1726 -56.1726 -56.1726 -56.1726 -56.1716 -56.1716 -56.1716 -56.1716
   -56.1710 -56.1710 -56.1709 -56.1709 -56.1648 -56.1648 -56.1646 -56.1646
   -56.1619 -56.1619 -56.1618 -56.1618 -46.9291 -46.9291 -42.0706 -42.0705
   -41.8028 -41.8027 -41.7743 -41.7742 -20.7578 -20.7578 -20.7525 -20.7525
   -20.7522 -20.7522 -10.5482 -10.5482 -10.3412 -10.3412 -10.3072 -10.3072
   -10.2495 -10.2495 -10.2232 -10.2232 -10.1535 -10.1535   0.0330   0.0330
     0.2929   0.2929   0.4302   0.4302   0.5930   0.5930   0.6824   0.6824
     0.8447   0.8447   1.0113   1.0113   1.1881   1.1881   1.4743   1.4743
     1.5452   1.5453   1.6020   1.6020   1.6682   1.6682   1.8178   1.8178
     1.9596   1.9596   2.1164   2.1164   2.2243   2.2243   2.2889   2.2889
     2.3561   2.3561   7.2914   7.2915   7.3615   7.3616   7.4684   7.4684
     8.5698   8.5698   9.1092   9.1092   9.4970   9.4970   9.8132   9.8132
     9.8798   9.8798  10.1659  10.1659  10.2657  10.2657  10.6228  10.6228
    11.1482  11.1482

          k = 0.0359-0.0417-0.0637 ( 28952 PWs)   bands (ev):

   -56.2566 -56.2566 -56.2565 -56.2565 -56.2536 -56.2536 -56.2536 -56.2536
   -56.2389 -56.2389 -56.2389 -56.2389 -56.2336 -56.2336 -56.2336 -56.2336
   -56.2312 -56.2312 -56.2312 -56.2312 -56.2177 -56.2177 -56.2176 -56.2176
   -56.2055 -56.2055 -56.2055 -56.2055 -56.2019 -56.2018 -56.2018 -56.2018
   -56.1911 -56.1910 -56.1910 -56.1910 -56.1882 -56.1882 -56.1880 -56.1880
   -56.1726 -56.1726 -56.1726 -56.1726 -56.1716 -56.1716 -56.1716 -56.1716
   -56.1710 -56.1710 -56.1709 -56.1709 -56.1648 -56.1648 -56.1646 -56.1646
   -56.1619 -56.1618 -56.1618 -56.1617 -46.9291 -46.9291 -42.0706 -42.0705
   -41.8028 -41.8027 -41.7743 -41.7742 -20.7578 -20.7578 -20.7525 -20.7525
   -20.7523 -20.7523 -10.5178 -10.5178 -10.3592 -10.3592 -10.3164 -10.3163
   -10.2402 -10.2402 -10.2160 -10.2160 -10.1748 -10.1748  -0.0990  -0.0990
     0.3062   0.3063   0.3489   0.3489   0.5448   0.5449   0.6463   0.6463
     0.8793   0.8793   1.1221   1.1221   1.2648   1.2648   1.4544   1.4545
     1.5477   1.5477   1.6282   1.6282   1.7829   1.7829   1.8981   1.8981
     2.0118   2.0118   2.0924   2.0924   2.1806   2.1806   2.2858   2.2859
     2.4262   2.4262   7.1695   7.1695   7.3306   7.3306   7.4016   7.4016
     8.7093   8.7093   9.0454   9.0454   9.2936   9.2936   9.4705   9.4705
     9.6705   9.6706  10.2308  10.2308  10.5439  10.5439  10.7177  10.7177
    10.9292  10.9293

          k = 0.0359-0.0417-0.0255 ( 28930 PWs)   bands (ev):

   -56.2566 -56.2565 -56.2565 -56.2565 -56.2536 -56.2536 -56.2536 -56.2536
   -56.2389 -56.2389 -56.2389 -56.2389 -56.2336 -56.2336 -56.2336 -56.2336
   -56.2312 -56.2312 -56.2312 -56.2312 -56.2176 -56.2176 -56.2176 -56.2176
   -56.2056 -56.2055 -56.2055 -56.2055 -56.2018 -56.2018 -56.2018 -56.2018
   -56.1911 -56.1910 -56.1910 -56.1910 -56.1882 -56.1882 -56.1880 -56.1880
   -56.1726 -56.1726 -56.1726 -56.1725 -56.1716 -56.1716 -56.1716 -56.1716
   -56.1710 -56.1710 -56.1709 -56.1709 -56.1648 -56.1648 -56.1646 -56.1646
   -56.1619 -56.1618 -56.1618 -56.1617 -46.9291 -46.9291 -42.0706 -42.0705
   -41.8027 -41.8027 -41.7743 -41.7742 -20.7578 -20.7578 -20.7525 -20.7525
   -20.7523 -20.7523 -10.5859 -10.5859 -10.3276 -10.3275 -10.2955 -10.2955
   -10.2267 -10.2267 -10.1994 -10.1994 -10.1826 -10.1826  -0.1197  -0.1197
     0.2232   0.2232   0.3187   0.3187   0.4349   0.4349   0.4918   0.4918
     0.9682   0.9682   1.1591   1.1591   1.3690   1.3690   1.4935   1.4935
     1.5196   1.5196   1.6298   1.6298   1.7361   1.7362   1.9284   1.9284
     2.0241   2.0241   2.0958   2.0958   2.3458   2.3458   2.4139   2.4139
     2.4590   2.4590   7.2331   7.2331   7.2936   7.2936   7.3824   7.3824
     8.5394   8.5394   8.8674   8.8674   9.1101   9.1101   9.5636   9.5636
     9.7292   9.7292  10.0893  10.0893  10.2121  10.2122  10.2821  10.2821
    11.0147  11.0147

          k =-0.0718 0.0000-0.0255 ( 28928 PWs)   bands (ev):

   -56.2566 -56.2565 -56.2565 -56.2565 -56.2537 -56.2536 -56.2536 -56.2536
   -56.2389 -56.2389 -56.2389 -56.2389 -56.2336 -56.2336 -56.2336 -56.2335
   -56.2312 -56.2312 -56.2312 -56.2312 -56.2177 -56.2177 -56.2176 -56.2176
   -56.2055 -56.2055 -56.2055 -56.2055 -56.2018 -56.2018 -56.2018 -56.2018
   -56.1911 -56.1910 -56.1910 -56.1910 -56.1882 -56.1882 -56.1880 -56.1880
   -56.1726 -56.1726 -56.1726 -56.1726 -56.1716 -56.1716 -56.1716 -56.1716
   -56.1710 -56.1710 -56.1709 -56.1709 -56.1648 -56.1648 -56.1646 -56.1646
   -56.1619 -56.1618 -56.1618 -56.1617 -46.9291 -46.9291 -42.0706 -42.0705
   -41.8027 -41.8027 -41.7743 -41.7742 -20.7577 -20.7577 -20.7525 -20.7525
   -20.7523 -20.7523 -10.5338 -10.5338 -10.3467 -10.3467 -10.3227 -10.3227
   -10.2691 -10.2691 -10.1909 -10.1909 -10.1598 -10.1598   0.0681   0.0682
     0.3822   0.3823   0.4283   0.4283   0.5119   0.5119   0.7355   0.7355
     0.8399   0.8399   1.0059   1.0059   1.1226   1.1226   1.1491   1.1491
     1.5912   1.5912   1.6761   1.6761   1.7187   1.7187   1.8381   1.8381
     2.0459   2.0460   2.0629   2.0629   2.1989   2.1989   2.3657   2.3657
     2.4221   2.4221   7.2767   7.2767   7.3153   7.3153   7.4300   7.4300
     8.7590   8.7590   8.9100   8.9101   9.2907   9.2907   9.8106   9.8106
    10.0738  10.0738  10.1647  10.1648  10.3833  10.3833  10.7416  10.7416
    11.1822  11.1824

          k =-0.0718 0.0000 0.0127 ( 28949 PWs)   bands (ev):

   -56.2566 -56.2566 -56.2565 -56.2565 -56.2537 -56.2536 -56.2536 -56.2536
   -56.2389 -56.2389 -56.2389 -56.2389 -56.2336 -56.2336 -56.2335 -56.2335
   -56.2312 -56.2312 -56.2312 -56.2312 -56.2177 -56.2176 -56.2176 -56.2176
   -56.2055 -56.2055 -56.2055 -56.2055 -56.2018 -56.2018 -56.2018 -56.2018
   -56.1911 -56.1910 -56.1910 -56.1910 -56.1882 -56.1882 -56.1880 -56.1880
   -56.1726 -56.1726 -56.1726 -56.1726 -56.1716 -56.1716 -56.1716 -56.1716
   -56.1710 -56.1709 -56.1709 -56.1709 -56.1648 -56.1648 -56.1646 -56.1646
   -56.1619 -56.1618 -56.1618 -56.1618 -46.9291 -46.9291 -42.0706 -42.0705
   -41.8028 -41.8027 -41.7743 -41.7742 -20.7578 -20.7578 -20.7525 -20.7525
   -20.7523 -20.7523 -10.5348 -10.4792 -10.3555 -10.3322 -10.3289 -10.3032
   -10.2968 -10.2786 -10.2201 -10.1885 -10.1709 -10.1600  -0.0901   0.0961
     0.2432   0.3055   0.3740   0.4220   0.4641   0.5363   0.5409   0.6072
     0.7179   0.9330   0.9563   1.1300   1.2328   1.3065   1.3678   1.4524
     1.5131   1.6852   1.6920   1.7296   1.7709   1.7925   1.8440   1.9889
     2.0153   2.0641   2.0820   2.0892   2.1370   2.1973   2.3178   2.3358
     2.3713   2.4795   7.1585   7.2296   7.2668   7.2704   7.3720   7.3883
     8.6450   8.9065   8.9647   9.0598   9.1785   9.3697   9.3766   9.6088
     9.7425   9.7521   9.9210   9.9557  10.1474  10.2356  10.2992  10.4573
    11.0715  11.2145

          k =-0.0718 0.0000-0.1020 ( 28970 PWs)   bands (ev):

   -56.2566 -56.2566 -56.2565 -56.2565 -56.2537 -56.2536 -56.2536 -56.2536
   -56.2389 -56.2389 -56.2389 -56.2389 -56.2336 -56.2336 -56.2335 -56.2335
   -56.2312 -56.2312 -56.2312 -56.2312 -56.2177 -56.2177 -56.2176 -56.2176
   -56.2055 -56.2055 -56.2055 -56.2055 -56.2018 -56.2018 -56.2018 -56.2018
   -56.1911 -56.1911 -56.1910 -56.1910 -56.1882 -56.1882 -56.1880 -56.1880
   -56.1726 -56.1726 -56.1726 -56.1726 -56.1716 -56.1716 -56.1716 -56.1716
   -56.1710 -56.1710 -56.1709 -56.1709 -56.1648 -56.1648 -56.1646 -56.1646
   -56.1619 -56.1619 -56.1618 -56.1618 -46.9291 -46.9291 -42.0706 -42.0705
   -41.8028 -41.8027 -41.7743 -41.7743 -20.7578 -20.7578 -20.7526 -20.7526
   -20.7523 -20.7523 -10.4794 -10.4794 -10.3517 -10.3517 -10.3214 -10.3214
   -10.2756 -10.2756 -10.2264 -10.2264 -10.1715 -10.1715  -0.0758  -0.0758
     0.1916   0.1916   0.3253   0.3253   0.3911   0.3911   0.6117   0.6117
     0.8639   0.8639   1.1786   1.1786   1.2989   1.2989   1.5689   1.5689
     1.6427   1.6427   1.6983   1.6983   1.8223   1.8223   1.8466   1.8466
     2.0446   2.0447   2.0958   2.0958   2.2808   2.2808   2.3090   2.3090
     2.4574   2.4574   7.1532   7.1533   7.2215   7.2215   7.2713   7.2714
     8.6335   8.6335   9.0439   9.0439   9.1859   9.1859   9.3197   9.3197
     9.5817   9.5818   9.7786   9.7786  10.0967  10.0967  10.4139  10.4139
    11.0475  11.0475

          k =-0.0718-0.0417-0.0255 ( 28964 PWs)   bands (ev):

   -56.2566 -56.2565 -56.2565 -56.2565 -56.2537 -56.2536 -56.2536 -56.2536
   -56.2389 -56.2389 -56.2389 -56.2389 -56.2336 -56.2336 -56.2336 -56.2336
   -56.2312 -56.2312 -56.2312 -56.2312 -56.2177 -56.2177 -56.2176 -56.2176
   -56.2055 -56.2055 -56.2055 -56.2055 -56.2019 -56.2018 -56.2018 -56.2018
   -56.1911 -56.1910 -56.1910 -56.1910 -56.1882 -56.1882 -56.1880 -56.1880
   -56.1726 -56.1726 -56.1726 -56.1726 -56.1716 -56.1716 -56.1716 -56.1716
   -56.1710 -56.1710 -56.1709 -56.1709 -56.1648 -56.1648 -56.1646 -56.1646
   -56.1619 -56.1619 -56.1618 -56.1618 -46.9291 -46.9291 -42.0706 -42.0705
   -41.8028 -41.8027 -41.7743 -41.7742 -20.7577 -20.7577 -20.7525 -20.7525
   -20.7522 -20.7522 -10.5258 -10.5258 -10.3898 -10.3897 -10.2868 -10.2868
   -10.2524 -10.2524 -10.2140 -10.2140 -10.1541 -10.1541   0.0187   0.0187
     0.2665   0.2665   0.4794   0.4795   0.6461   0.6461   0.6568   0.6568
     0.9216   0.9216   0.9826   0.9826   1.2021   1.2021   1.3268   1.3268
     1.4975   1.4975   1.5137   1.5137   1.7999   1.7999   1.8391   1.8392
     1.9990   1.9990   2.0783   2.0783   2.1538   2.1538   2.3134   2.3134
     2.4351   2.4351   7.2267   7.2267   7.3602   7.3602   7.4823   7.4823
     8.6155   8.6155   9.3429   9.3429   9.4655   9.4655   9.7317   9.7317
     9.7716   9.7716  10.1006  10.1006  10.6360  10.6360  10.8124  10.8124
    10.9543  10.9543

          k =-0.0718-0.0417 0.0127 ( 28958 PWs)   bands (ev):

   -56.2566 -56.2566 -56.2565 -56.2565 -56.2537 -56.2536 -56.2536 -56.2536
   -56.2389 -56.2389 -56.2389 -56.2389 -56.2336 -56.2336 -56.2336 -56.2336
   -56.2312 -56.2312 -56.2312 -56.2312 -56.2177 -56.2177 -56.2176 -56.2176
   -56.2055 -56.2055 -56.2055 -56.2055 -56.2018 -56.2018 -56.2018 -56.2018
   -56.1911 -56.1911 -56.1910 -56.1910 -56.1882 -56.1882 -56.1880 -56.1880
   -56.1726 -56.1726 -56.1726 -56.1726 -56.1716 -56.1716 -56.1716 -56.1716
   -56.1710 -56.1709 -56.1709 -56.1709 -56.1648 -56.1648 -56.1646 -56.1646
   -56.1619 -56.1619 -56.1618 -56.1618 -46.9291 -46.9291 -42.0706 -42.0705
   -41.8028 -41.8027 -41.7743 -41.7742 -20.7578 -20.7578 -20.7526 -20.7526
   -20.7522 -20.7522 -10.5027 -10.5027 -10.3750 -10.3749 -10.3121 -10.3121
   -10.2526 -10.2526 -10.2167 -10.2167 -10.1654 -10.1654  -0.1044  -0.1044
     0.2974   0.2974   0.3995   0.3995   0.5068   0.5068   0.6484   0.6484
     0.9501   0.9501   1.0710   1.0710   1.2015   1.2015   1.4839   1.4839
     1.5305   1.5305   1.6274   1.6274   1.7491   1.7491   1.9502   1.9502
     2.0540   2.0540   2.0942   2.0942   2.1541   2.1541   2.2665   2.2665
     2.4427   2.4427   7.1407   7.1407   7.3480   7.3480   7.4087   7.4087
     8.7640   8.7641   8.9664   8.9664   9.2016   9.2016   9.5031   9.5031
     9.7512   9.7512  10.2126  10.2126  10.5701  10.5701  10.7998  10.7998
    10.8819  10.8819

          k =-0.0718-0.0417-0.1020 ( 28980 PWs)   bands (ev):

   -56.2566 -56.2566 -56.2565 -56.2565 -56.2537 -56.2537 -56.2536 -56.2536
   -56.2389 -56.2389 -56.2389 -56.2389 -56.2336 -56.2336 -56.2336 -56.2336
   -56.2312 -56.2312 -56.2312 -56.2312 -56.2177 -56.2177 -56.2176 -56.2176
   -56.2056 -56.2055 -56.2055 -56.2055 -56.2019 -56.2018 -56.2018 -56.2018
   -56.1911 -56.1911 -56.1910 -56.1910 -56.1882 -56.1882 -56.1880 -56.1880
   -56.1726 -56.1726 -56.1726 -56.1726 -56.1716 -56.1716 -56.1716 -56.1716
   -56.1710 -56.1710 -56.1709 -56.1709 -56.1648 -56.1648 -56.1646 -56.1646
   -56.1619 -56.1619 -56.1618 -56.1618 -46.9291 -46.9291 -42.0706 -42.0705
   -41.8028 -41.8027 -41.7743 -41.7743 -20.7578 -20.7578 -20.7526 -20.7526
   -20.7522 -20.7522 -10.4649 -10.4649 -10.3859 -10.3859 -10.3260 -10.3260
   -10.2481 -10.2481 -10.2156 -10.2156 -10.1855 -10.1855  -0.2025  -0.2025
     0.2440   0.2440   0.3329   0.3330   0.4957   0.4958   0.6897   0.6897
     0.9592   0.9592   1.1131   1.1131   1.2156   1.2157   1.5213   1.5213
     1.5501   1.5501   1.6835   1.6835   1.7415   1.7415   1.9854   1.9854
     2.1144   2.1145   2.1369   2.1370   2.2737   2.2737   2.3073   2.3073
     2.3680   2.3680   7.0335   7.0335   7.3017   7.3017   7.3576   7.3576
     8.6879   8.6879   8.7874   8.7875   9.1641   9.1641   9.2568   9.2568
     9.7601   9.7601  10.1688  10.1688  10.6335  10.6335  10.7854  10.7854
    10.8733  10.8734

     the Fermi energy is     4.8680 ev

!    total energy              =   -6740.47932080 Ry

     total all-electron energy =   -114993.495279 Ry
     estimated scf accuracy    <          7.7E-09 Ry
     smearing contrib. (-TS)   =      -0.00000000 Ry
     internal energy E=F+TS    =   -6740.47932080 Ry

     The total energy is F=E-TS. E is the sum of the following terms:
     one-electron contribution =   -3515.80817607 Ry
     hartree contribution      =    1688.13291671 Ry
     xc contribution           =    -503.26883742 Ry
     ewald contribution        =   -1690.68325647 Ry
     one-center paw contrib.   =   -2718.85196755 Ry

     convergence has been achieved in   9 iterations

     Forces acting on atoms (cartesian axes, Ry/au):

     atom    1 type  1   force =     0.00000000   -0.00195752    0.00000000
     atom    2 type  1   force =     0.00000000    0.00042090    0.00000000
     atom    3 type  1   force =     0.00000000   -0.00027306    0.00000000
     atom    4 type  1   force =     0.00000000   -0.00194531    0.00000000
     atom    5 type  1   force =     0.00000000    0.00042744    0.00000000
     atom    6 type  1   force =     0.00000000   -0.00026810    0.00000000
     atom    7 type  2   force =     0.00000000    0.00080758    0.00000000
     atom    8 type  2   force =     0.00000000    0.00082847    0.00000000
     atom    9 type  3   force =     0.00098766    0.00178349    0.00379541
     atom   10 type  3   force =     0.00308815   -0.00238947    0.00127981
     atom   11 type  3   force =    -0.00308815   -0.00238947   -0.00127981
     atom   12 type  3   force =    -0.00098766    0.00178349   -0.00379541
     atom   13 type  3   force =    -0.00328919    0.00148486    0.00333611
     atom   14 type  3   force =     0.00328919    0.00148486   -0.00333611
     atom   15 type  3   force =     0.00095062    0.00150714    0.00380367
     atom   16 type  3   force =     0.00307898   -0.00263926    0.00126053
     atom   17 type  3   force =    -0.00307898   -0.00263926   -0.00126053
     atom   18 type  3   force =    -0.00095062    0.00150714   -0.00380367
     atom   19 type  3   force =    -0.00318135    0.00123304    0.00335993
     atom   20 type  3   force =     0.00318135    0.00123304   -0.00335993

     Total force =     0.015680     Total SCF correction =     0.000336


     Computing stress (Cartesian axis) and pressure

          total   stress  (Ry/bohr**3)                   (kbar)     P=       -8.03
  -0.00005776   0.00000000   0.00000128           -8.50        0.00        0.19
   0.00000000  -0.00005926   0.00000000            0.00       -8.72        0.00
   0.00000128   0.00000000  -0.00004679            0.19        0.00       -6.88


     Writing output data file ./pwscf.save/
 
     init_run     :      3.03s CPU      3.17s WALL (       1 calls)
     electrons    :     66.92s CPU     67.74s WALL (       1 calls)
     forces       :      1.38s CPU      1.38s WALL (       1 calls)
     stress       :      8.74s CPU      8.79s WALL (       1 calls)

     Called by init_run:
     wfcinit      :      1.85s CPU      1.88s WALL (       1 calls)
     potinit      :      0.40s CPU      0.41s WALL (       1 calls)
     hinit0       :      0.51s CPU      0.58s WALL (       1 calls)

     Called by electrons:
     c_bands      :     58.21s CPU     58.77s WALL (      10 calls)
     sum_band     :      7.04s CPU      7.15s WALL (      10 calls)
     v_of_rho     :      0.24s CPU      0.24s WALL (      10 calls)
     newd         :      0.62s CPU      0.63s WALL (      10 calls)
     PAW_pot      :      0.88s CPU      0.88s WALL (      10 calls)
     mix_rho      :      0.05s CPU      0.05s WALL (      10 calls)

     Called by c_bands:
     init_us_2    :      0.60s CPU      0.60s WALL (     230 calls)
     cegterg      :     53.44s CPU     53.96s WALL (     100 calls)

     Called by *egterg:
     cdiaghg      :     15.50s CPU     15.56s WALL (     520 calls)
     h_psi        :     24.31s CPU     24.75s WALL (     540 calls)
     s_psi        :      2.76s CPU      2.77s WALL (     540 calls)
     g_psi        :      0.11s CPU      0.11s WALL (     430 calls)

     Called by h_psi:
     h_psi:calbec :      3.11s CPU      3.13s WALL (     540 calls)
     vloc_psi     :     18.11s CPU     18.51s WALL (     540 calls)
     add_vuspsi   :      2.80s CPU      2.81s WALL (     540 calls)

     General routines
     calbec       :      6.82s CPU      6.87s WALL (     690 calls)
     fft          :      0.26s CPU      0.33s WALL (     154 calls)
     ffts         :      0.01s CPU      0.01s WALL (      20 calls)
     fftw         :     20.09s CPU     20.53s WALL (   86780 calls)
     interpolate  :      0.02s CPU      0.02s WALL (      10 calls)
 
     Parallel routines
     fft_scatt_xy :      2.70s CPU      2.75s WALL (   86954 calls)
     fft_scatt_yz :      8.45s CPU      8.63s WALL (   86954 calls)
 
     PWSCF        :   1m20.80s CPU   1m24.60s WALL

 
   This run was terminated on:  17:20:46   2Aug2021            

=------------------------------------------------------------------------------=
   JOB DONE.
=------------------------------------------------------------------------------=
