
     Program PWSCF v.6.7MaX starts on  2Aug2021 at 17:34: 6 

     This program is part of the open-source Quantum ESPRESSO suite
     for quantum simulation of materials; please cite
         "P. Giannozzi et al., J. Phys.:Condens. Matter 21 395502 (2009);
         "P. Giannozzi et al., J. Phys.:Condens. Matter 29 465901 (2017);
          URL http://www.quantum-espresso.org", 
     in publications or presentations arising from this work. More details at
     http://www.quantum-espresso.org/quote

     Parallel version (MPI), running on    48 processors

     MPI processes distributed on     2 nodes
     K-points division:     npool     =       2
     R & G space division:  proc/nbgrp/npool/nimage =      24
     Waiting for input...
     Reading input from standard input
Warning: card &CELL ignored
Warning: card CELL_DYNAMICS             = 'BFGS', ignored
Warning: card PRESS                     = '0.0', ignored
Warning: card PRESS_CONV_THR            = '0.5', ignored
Warning: card / ignored
     Message from routine read_cards :
     DEPRECATED: no units specified in CELL_PARAMETERS card

     Current dimensions of program PWSCF are:
     Max number of different atomic species (ntypx) = 10
     Max number of k-points (npk) =  40000
     Max angular momentum in pseudopotentials (lmaxx) =  3
     Message from routine cell_base_init:
     DEPRECATED: use true lattice parameter, not A to a.u. conversion factor
 end of file reached, closing tag not found
     file Er.pbe-spdn-kjpaw_psl.1.0.0.UPF: wavefunction(s)  6S 5D renormalized
     file Br.pbe-dn-kjpaw_psl.1.0.0.UPF: wavefunction(s)  4S 4P 3D renormalized

     Subspace diagonalization in iterative solution of the eigenvalue problem:
     a serial algorithm will be used

     Found symmetry operation: I + ( -0.5000 -0.5000  0.0000)
     This is a supercell, fractional translations are disabled
     Message from routine setup:
     using ibrav=0 with symmetry is DISCOURAGED, use correct ibrav instead
 
     Parallelization info
     --------------------
     sticks:   dense  smooth     PW     G-vecs:    dense   smooth      PW
     Min         693     554    148                48067    34391    4777
     Max         695     555    149                48070    34393    4780
     Sum       16649   13297   3571              1153641   825419  114691
 


     bravais-lattice index     =            0
     lattice parameter (alat)  =       1.8897  a.u.
     unit-cell volume          =    3688.3023 (a.u.)^3
     number of atoms/cell      =           20
     number of atomic types    =            3
     number of electrons       =       244.00
     number of Kohn-Sham states=          146
     kinetic-energy cutoff     =     140.0000  Ry
     charge density cutoff     =     700.0000  Ry
     scf convergence threshold =      1.0E-08
     mixing beta               =       0.4000
     number of iterations used =            8  plain     mixing
     Exchange-correlation= SLA  PW   PBX  PBC
                           (   1   4   3   4   0   0   0)

     celldm(1)=   1.889726  celldm(2)=   0.000000  celldm(3)=   0.000000
     celldm(4)=   0.000000  celldm(5)=   0.000000  celldm(6)=   0.000000

     crystal axes: (cart. coord. in units of alat)
               a(1) = (   6.967356   0.000000   0.000000 )  
               a(2) = (   0.000000  11.998880   0.000000 )  
               a(3) = (  -2.324723   0.000000   6.537643 )  

     reciprocal axes: (cart. coord. in units 2 pi/alat)
               b(1) = (  0.143526  0.000000  0.051037 )  
               b(2) = (  0.000000  0.083341  0.000000 )  
               b(3) = (  0.000000  0.000000  0.152960 )  


     PseudoPot. # 1 for Li read from file:
     /central/groups/SeeGroup/qe_pseudopotentials/Li.pbe-s-kjpaw_psl.1.0.0.UPF
     MD5 check sum: cc502796ee09d8b62ac346ee26e59beb
     Pseudo is Projector augmented-wave, Zval =  3.0
     Generated using &quot;atomic&quot; code by A. Dal Corso  v.6.3
     Shape of augmentation charge: PSQ
     Using radial grid of 1017 points,  4 beta functions with: 
                l(1) =   0
                l(2) =   0
                l(3) =   1
                l(4) =   1
     Q(r) pseudized with 0 coefficients 


     PseudoPot. # 2 for Er read from file:
     /central/groups/SeeGroup/qe_pseudopotentials/Er.pbe-spdn-kjpaw_psl.1.0.0.UPF
     MD5 check sum: a923254af2aef992cff3e18bc73f2922
     Pseudo is Projector augmented-wave + core cor, Zval = 11.0
     Generated using &quot;atomic&quot; code by A. Dal Corso  v.6.2.2
     Shape of augmentation charge: PSQ
     Using radial grid of 1267 points,  6 beta functions with: 
                l(1) =   0
                l(2) =   0
                l(3) =   1
                l(4) =   1
                l(5) =   2
                l(6) =   2
     Q(r) pseudized with 0 coefficients 


     PseudoPot. # 3 for Br read from file:
     /central/groups/SeeGroup/qe_pseudopotentials/Br.pbe-dn-kjpaw_psl.1.0.0.UPF
     MD5 check sum: 4ca4ebabfd6065c7bb707b2ebe99e9b3
     Pseudo is Projector augmented-wave + core cor, Zval = 17.0
     Generated using &quot;atomic&quot; code by A. Dal Corso  v.6.3
     Shape of augmentation charge: PSQ
     Using radial grid of 1213 points,  6 beta functions with: 
                l(1) =   0
                l(2) =   0
                l(3) =   1
                l(4) =   1
                l(5) =   2
                l(6) =   2
     Q(r) pseudized with 0 coefficients 


     atomic species   valence    mass     pseudopotential
        Li             3.00     6.94100     Li( 1.00)
        Er            11.00   167.25900     Er( 1.00)
        Br            17.00    79.90400     Br( 1.00)

      2 Sym. Ops. (no inversion) found



   Cartesian axes

     site n.     atom                  positions (alat units)
         1           Li  tau(   1) = (   3.4836780   9.9564306   0.0000000  )
         2           Li  tau(   2) = (   3.4836780   2.0173957   0.0000000  )
         3           Li  tau(   3) = (   2.3213165   7.8846440   3.2688215  )
         4           Li  tau(   4) = (   0.0000000   3.9569906   0.0000000  )
         5           Li  tau(   5) = (   0.0000000   8.0168357   0.0000000  )
         6           Li  tau(   6) = (  -1.1623615   1.8852040   3.2688215  )
         7           Er  tau(   7) = (   3.4836780   5.9699947   0.0000000  )
         8           Er  tau(   8) = (   0.0000000  11.9694347   0.0000000  )
         9           Br  tau(   9) = (   3.4471523   9.9581465   5.0158758  )
        10           Br  tau(  10) = (   3.5847273   1.9854607   4.9258002  )
        11           Br  tau(  11) = (   1.0579057   1.9854607   1.6118428  )
        12           Br  tau(  12) = (   1.1954807   9.9581465   1.5217672  )
        13           Br  tau(  13) = (  -0.0150075   0.0698395   4.9769442  )
        14           Br  tau(  14) = (   4.6576405   0.0698395   1.5606988  )
        15           Br  tau(  15) = (  -0.0365257   3.9587065   5.0158758  )
        16           Br  tau(  16) = (   0.1010493   7.9849007   4.9258002  )
        17           Br  tau(  17) = (   4.5415837   7.9849007   1.6118428  )
        18           Br  tau(  18) = (   4.6791587   3.9587065   1.5217672  )
        19           Br  tau(  19) = (   3.4686705   6.0692795   4.9769442  )
        20           Br  tau(  20) = (   1.1739625   6.0692795   1.5606988  )

     number of k points=    40  Fermi-Dirac smearing, width (Ry)=  0.0070
                       cart. coord. in units 2pi/alat
        k(    1) = (   0.0000000   0.0000000   0.0000000), wk =   0.0185185
        k(    2) = (   0.0000000   0.0000000   0.0254934), wk =   0.0370370
        k(    3) = (   0.0000000   0.0000000   0.0509868), wk =   0.0370370
        k(    4) = (   0.0000000   0.0000000  -0.0764802), wk =   0.0185185
        k(    5) = (   0.0000000   0.0277804   0.0000000), wk =   0.0370370
        k(    6) = (   0.0000000   0.0277804   0.0254934), wk =   0.0740741
        k(    7) = (   0.0000000   0.0277804   0.0509868), wk =   0.0740741
        k(    8) = (   0.0000000   0.0277804  -0.0764802), wk =   0.0370370
        k(    9) = (   0.0239211   0.0000000   0.0085061), wk =   0.0370370
        k(   10) = (   0.0239211   0.0000000   0.0339995), wk =   0.0370370
        k(   11) = (   0.0239211   0.0000000   0.0594929), wk =   0.0370370
        k(   12) = (   0.0239211   0.0000000  -0.0679741), wk =   0.0370370
        k(   13) = (   0.0239211   0.0000000  -0.0424807), wk =   0.0370370
        k(   14) = (   0.0239211   0.0000000  -0.0169873), wk =   0.0370370
        k(   15) = (   0.0239211   0.0277804   0.0085061), wk =   0.0740741
        k(   16) = (   0.0239211   0.0277804   0.0339995), wk =   0.0740741
        k(   17) = (   0.0239211   0.0277804   0.0594929), wk =   0.0740741
        k(   18) = (   0.0239211   0.0277804  -0.0679741), wk =   0.0740741
        k(   19) = (   0.0239211   0.0277804  -0.0424807), wk =   0.0740741
        k(   20) = (   0.0239211   0.0277804  -0.0169873), wk =   0.0740741
        k(   21) = (   0.0478422   0.0000000   0.0170122), wk =   0.0370370
        k(   22) = (   0.0478422   0.0000000   0.0425056), wk =   0.0370370
        k(   23) = (   0.0478422   0.0000000   0.0679990), wk =   0.0370370
        k(   24) = (   0.0478422   0.0000000  -0.0594680), wk =   0.0370370
        k(   25) = (   0.0478422   0.0000000  -0.0339746), wk =   0.0370370
        k(   26) = (   0.0478422   0.0000000  -0.0084812), wk =   0.0370370
        k(   27) = (   0.0478422   0.0277804   0.0170122), wk =   0.0740741
        k(   28) = (   0.0478422   0.0277804   0.0425056), wk =   0.0740741
        k(   29) = (   0.0478422   0.0277804   0.0679990), wk =   0.0740741
        k(   30) = (   0.0478422   0.0277804  -0.0594680), wk =   0.0740741
        k(   31) = (   0.0478422   0.0277804  -0.0339746), wk =   0.0740741
        k(   32) = (   0.0478422   0.0277804  -0.0084812), wk =   0.0740741
        k(   33) = (  -0.0717632   0.0000000  -0.0255183), wk =   0.0185185
        k(   34) = (  -0.0717632   0.0000000  -0.0000249), wk =   0.0370370
        k(   35) = (  -0.0717632   0.0000000   0.0254685), wk =   0.0370370
        k(   36) = (  -0.0717632   0.0000000  -0.1019985), wk =   0.0185185
        k(   37) = (  -0.0717632   0.0277804  -0.0255183), wk =   0.0370370
        k(   38) = (  -0.0717632   0.0277804  -0.0000249), wk =   0.0740741
        k(   39) = (  -0.0717632   0.0277804   0.0254685), wk =   0.0740741
        k(   40) = (  -0.0717632   0.0277804  -0.1019985), wk =   0.0370370

     Dense  grid:  1153641 G-vectors     FFT dimensions: ( 120, 192, 120)

     Smooth grid:   825419 G-vectors     FFT dimensions: ( 100, 180, 100)

     Estimated max dynamical RAM per process >     338.94 MB

     Estimated total dynamical RAM >      15.89 GB

     Initial potential from superposition of free atoms

     starting charge  243.93496, renormalised to  244.00000
     Starting wfcs are  164 randomized atomic wfcs
     Checking if some PAW data can be deallocated... 

     total cpu time spent up to now is       19.2 secs

     Self-consistent Calculation

     iteration #  1     ecut=   140.00 Ry     beta= 0.40
     Davidson diagonalization with overlap
     ethr =  1.00E-02,  avg # of iterations =  5.6

     Threshold (ethr) on eigenvalues was too large:
     Diagonalizing with lowered threshold

     Davidson diagonalization with overlap
     ethr =  1.17E-04,  avg # of iterations =  9.6

     total cpu time spent up to now is      128.0 secs

     total energy              =   -6740.53085948 Ry
     estimated scf accuracy    <       0.28250142 Ry

     iteration #  2     ecut=   140.00 Ry     beta= 0.40
     Davidson diagonalization with overlap
     ethr =  1.16E-04,  avg # of iterations =  2.0

     total cpu time spent up to now is      172.4 secs

     total energy              =   -6740.55699482 Ry
     estimated scf accuracy    <       0.03874465 Ry

     iteration #  3     ecut=   140.00 Ry     beta= 0.40
     Davidson diagonalization with overlap
     ethr =  1.59E-05,  avg # of iterations =  7.3

     total cpu time spent up to now is      226.0 secs

     total energy              =   -6740.56206194 Ry
     estimated scf accuracy    <       0.00544072 Ry

     iteration #  4     ecut=   140.00 Ry     beta= 0.40
     Davidson diagonalization with overlap
     c_bands:  1 eigenvalues not converged
     c_bands:  1 eigenvalues not converged
     ethr =  2.23E-06,  avg # of iterations = 10.3

     total cpu time spent up to now is      285.0 secs

     total energy              =   -6740.56274588 Ry
     estimated scf accuracy    <       0.00078089 Ry

     iteration #  5     ecut=   140.00 Ry     beta= 0.40
     Davidson diagonalization with overlap
     ethr =  3.20E-07,  avg # of iterations =  2.1

     total cpu time spent up to now is      325.9 secs

     total energy              =   -6740.56288020 Ry
     estimated scf accuracy    <       0.00018118 Ry

     iteration #  6     ecut=   140.00 Ry     beta= 0.40
     Davidson diagonalization with overlap
     ethr =  7.43E-08,  avg # of iterations =  2.0

     total cpu time spent up to now is      367.0 secs

     total energy              =   -6740.56289765 Ry
     estimated scf accuracy    <       0.00003560 Ry

     iteration #  7     ecut=   140.00 Ry     beta= 0.40
     Davidson diagonalization with overlap
     ethr =  1.46E-08,  avg # of iterations =  2.0

     total cpu time spent up to now is      408.0 secs

     total energy              =   -6740.56289940 Ry
     estimated scf accuracy    <       0.00000095 Ry

     iteration #  8     ecut=   140.00 Ry     beta= 0.40
     Davidson diagonalization with overlap
     ethr =  3.91E-10,  avg # of iterations =  2.0

     total cpu time spent up to now is      457.5 secs

     total energy              =   -6740.56289954 Ry
     estimated scf accuracy    <       0.00000013 Ry

     iteration #  9     ecut=   140.00 Ry     beta= 0.40
     Davidson diagonalization with overlap
     ethr =  5.22E-11,  avg # of iterations =  2.0

     total cpu time spent up to now is      499.2 secs

     End of self-consistent calculation

          k = 0.0000 0.0000 0.0000 (103225 PWs)   bands (ev):

   -56.2758 -56.2758 -56.2758 -56.2757 -56.2729 -56.2729 -56.2728 -56.2728
   -56.2581 -56.2581 -56.2580 -56.2580 -56.2530 -56.2529 -56.2529 -56.2528
   -56.2505 -56.2505 -56.2505 -56.2505 -56.2369 -56.2369 -56.2369 -56.2369
   -56.2248 -56.2248 -56.2248 -56.2248 -56.2212 -56.2212 -56.2212 -56.2211
   -56.2101 -56.2101 -56.2100 -56.2100 -56.2072 -56.2071 -56.2071 -56.2071
   -56.1919 -56.1919 -56.1919 -56.1919 -56.1910 -56.1910 -56.1909 -56.1909
   -56.1900 -56.1900 -56.1899 -56.1899 -56.1839 -56.1839 -56.1838 -56.1838
   -56.1809 -56.1809 -56.1809 -56.1808 -46.9321 -46.9320 -42.0680 -42.0680
   -41.7993 -41.7993 -41.7708 -41.7708 -20.7600 -20.7599 -20.7546 -20.7546
   -20.7545 -20.7543 -10.7217 -10.5407 -10.3947 -10.2882 -10.2785 -10.2692
   -10.2366 -10.2318 -10.2243 -10.1599 -10.1545 -10.1287  -0.1684  -0.1594
     0.2179   0.2442   0.2633   0.4075   0.4549   0.6221   0.6722   0.7410
     0.8621   0.8623   0.8731   0.9982   1.1250   1.2410   1.2641   1.2678
     1.2728   1.4827   1.5252   1.6950   1.7401   1.9380   1.9804   2.0168
     2.0552   2.0730   2.1871   2.2405   2.3322   2.4622   2.5280   2.5281
     2.5730   2.5792   7.0473   7.3026   7.4452   7.4650   7.4669   7.5186
     7.5471   8.7245   8.7420   8.8084   9.1064   9.1638   9.3651   9.3989
     9.4757   9.7235   9.9170  10.3103  10.3251  10.3769  10.6699  10.8568
    10.9489  11.1003

          k = 0.0000 0.0000 0.0255 (103188 PWs)   bands (ev):

   -56.2758 -56.2758 -56.2758 -56.2757 -56.2729 -56.2729 -56.2728 -56.2728
   -56.2581 -56.2581 -56.2580 -56.2580 -56.2530 -56.2529 -56.2529 -56.2528
   -56.2505 -56.2505 -56.2505 -56.2505 -56.2369 -56.2369 -56.2369 -56.2369
   -56.2248 -56.2248 -56.2248 -56.2248 -56.2212 -56.2212 -56.2211 -56.2211
   -56.2101 -56.2101 -56.2100 -56.2100 -56.2072 -56.2071 -56.2071 -56.2071
   -56.1919 -56.1919 -56.1919 -56.1919 -56.1910 -56.1910 -56.1909 -56.1909
   -56.1900 -56.1900 -56.1899 -56.1899 -56.1839 -56.1839 -56.1838 -56.1838
   -56.1809 -56.1809 -56.1809 -56.1808 -46.9321 -46.9320 -42.0680 -42.0680
   -41.7993 -41.7993 -41.7708 -41.7708 -20.7600 -20.7599 -20.7546 -20.7546
   -20.7545 -20.7543 -10.7002 -10.5244 -10.3858 -10.2907 -10.2851 -10.2828
   -10.2458 -10.2407 -10.2188 -10.1674 -10.1636 -10.1304  -0.1180  -0.0752
     0.2590   0.2608   0.2962   0.3642   0.4581   0.4955   0.6992   0.8112
     0.8393   0.8924   0.9842   1.0490   1.0848   1.1031   1.2409   1.3598
     1.3634   1.4450   1.4760   1.6697   1.7473   1.9588   1.9969   2.0228
     2.0405   2.1032   2.1734   2.2197   2.3082   2.3515   2.3613   2.5110
     2.5218   2.5226   7.1101   7.2914   7.3737   7.4294   7.4877   7.5356
     7.7783   8.7637   8.7918   8.9574   9.0884   9.1756   9.3142   9.3628
     9.6388   9.9846  10.0188  10.1190  10.3613  10.6065  10.6536  10.7327
    10.9813  11.1698

          k = 0.0000 0.0000 0.0510 (103152 PWs)   bands (ev):

   -56.2758 -56.2758 -56.2757 -56.2757 -56.2729 -56.2729 -56.2728 -56.2728
   -56.2581 -56.2581 -56.2580 -56.2580 -56.2530 -56.2529 -56.2529 -56.2528
   -56.2505 -56.2505 -56.2505 -56.2505 -56.2369 -56.2369 -56.2369 -56.2369
   -56.2248 -56.2248 -56.2248 -56.2248 -56.2212 -56.2212 -56.2211 -56.2211
   -56.2101 -56.2101 -56.2100 -56.2100 -56.2072 -56.2071 -56.2071 -56.2071
   -56.1919 -56.1919 -56.1919 -56.1919 -56.1910 -56.1910 -56.1909 -56.1909
   -56.1900 -56.1900 -56.1899 -56.1899 -56.1839 -56.1839 -56.1838 -56.1838
   -56.1809 -56.1809 -56.1809 -56.1808 -46.9321 -46.9320 -42.0680 -42.0680
   -41.7993 -41.7993 -41.7708 -41.7708 -20.7601 -20.7600 -20.7547 -20.7546
   -20.7546 -20.7543 -10.6470 -10.4845 -10.3629 -10.3408 -10.3025 -10.2864
   -10.2653 -10.2401 -10.2351 -10.1820 -10.1659 -10.1364  -0.0266   0.1033
     0.2247   0.2890   0.3598   0.4352   0.4796   0.5434   0.6882   0.7722
     0.8401   0.8933   0.9469   1.0691   1.0990   1.2137   1.3203   1.3487
     1.3976   1.4129   1.5329   1.5624   1.7644   1.8166   1.8969   1.9831
     2.0637   2.0652   2.0857   2.1322   2.1829   2.2707   2.3251   2.3837
     2.4758   2.4829   7.2183   7.2401   7.2557   7.3427   7.4916   7.5609
     8.3792   8.7117   8.9057   9.0054   9.1171   9.3891   9.5519   9.7068
     9.8236   9.9426  10.1168  10.2546  10.3962  10.6572  10.7182  10.8577
    10.8875  11.0141

          k = 0.0000 0.0000-0.0765 (103168 PWs)   bands (ev):

   -56.2758 -56.2758 -56.2757 -56.2757 -56.2729 -56.2729 -56.2728 -56.2728
   -56.2581 -56.2581 -56.2580 -56.2580 -56.2529 -56.2529 -56.2529 -56.2528
   -56.2505 -56.2505 -56.2505 -56.2505 -56.2369 -56.2369 -56.2369 -56.2369
   -56.2248 -56.2248 -56.2248 -56.2248 -56.2212 -56.2212 -56.2211 -56.2211
   -56.2101 -56.2101 -56.2100 -56.2100 -56.2072 -56.2071 -56.2071 -56.2071
   -56.1919 -56.1919 -56.1919 -56.1919 -56.1910 -56.1910 -56.1909 -56.1909
   -56.1900 -56.1900 -56.1899 -56.1899 -56.1839 -56.1839 -56.1838 -56.1838
   -56.1809 -56.1809 -56.1809 -56.1809 -46.9321 -46.9320 -42.0680 -42.0680
   -41.7993 -41.7993 -41.7708 -41.7708 -20.7601 -20.7600 -20.7547 -20.7546
   -20.7546 -20.7543 -10.6104 -10.4578 -10.3798 -10.3445 -10.3194 -10.2848
   -10.2725 -10.2578 -10.2406 -10.1828 -10.1630 -10.1419   0.0250   0.1835
     0.1909   0.2487   0.3938   0.4981   0.5828   0.6733   0.6854   0.7348
     0.7823   0.9491   0.9903   1.0446   1.0949   1.2085   1.2706   1.3602
     1.3882   1.4542   1.4662   1.5322   1.6690   1.7954   1.8868   1.8997
     1.9536   2.0697   2.1217   2.1331   2.1439   2.2876   2.2985   2.3347
     2.4568   2.4597   7.1906   7.2149   7.2501   7.3270   7.4872   7.5779
     8.6393   8.7926   8.9073   9.0791   9.1932   9.4469   9.8898   9.9482
     9.9573  10.0375  10.0404  10.1870  10.2475  10.3058  10.7758  10.8079
    10.9740  10.9877

          k = 0.0000 0.0278 0.0000 (103216 PWs)   bands (ev):

   -56.2758 -56.2758 -56.2758 -56.2757 -56.2729 -56.2729 -56.2728 -56.2728
   -56.2581 -56.2581 -56.2580 -56.2580 -56.2530 -56.2529 -56.2529 -56.2528
   -56.2505 -56.2505 -56.2505 -56.2505 -56.2369 -56.2369 -56.2369 -56.2369
   -56.2248 -56.2248 -56.2248 -56.2248 -56.2212 -56.2212 -56.2212 -56.2211
   -56.2101 -56.2101 -56.2100 -56.2100 -56.2072 -56.2071 -56.2071 -56.2071
   -56.1919 -56.1919 -56.1919 -56.1919 -56.1910 -56.1910 -56.1909 -56.1909
   -56.1900 -56.1900 -56.1899 -56.1899 -56.1839 -56.1839 -56.1838 -56.1838
   -56.1809 -56.1809 -56.1809 -56.1808 -46.9321 -46.9320 -42.0680 -42.0680
   -41.7993 -41.7993 -41.7708 -41.7708 -20.7600 -20.7599 -20.7546 -20.7546
   -20.7545 -20.7544 -10.6902 -10.6082 -10.3437 -10.3005 -10.2879 -10.2851
   -10.2083 -10.2072 -10.2025 -10.1732 -10.1689 -10.1533  -0.1386  -0.1327
     0.1255   0.1412   0.2996   0.3752   0.4822   0.5822   0.6665   0.7633
     0.7865   0.8437   1.0673   1.0955   1.1228   1.1390   1.2197   1.2796
     1.4769   1.5599   1.6787   1.6884   1.7425   1.8857   1.8978   1.9007
     2.0066   2.2015   2.2710   2.2954   2.2988   2.3071   2.4111   2.4748
     2.5374   2.5647   7.1694   7.3325   7.4621   7.4625   7.4649   7.4990
     7.7817   8.4475   8.8139   8.8993   9.0456   9.1353   9.3408   9.4010
     9.4614   9.7347  10.0923  10.1699  10.1944  10.3093  10.7505  10.8484
    11.1220  11.1304

          k = 0.0000 0.0278 0.0255 (103187 PWs)   bands (ev):

   -56.2758 -56.2758 -56.2758 -56.2757 -56.2729 -56.2729 -56.2728 -56.2728
   -56.2581 -56.2581 -56.2580 -56.2580 -56.2530 -56.2529 -56.2529 -56.2528
   -56.2505 -56.2505 -56.2505 -56.2505 -56.2369 -56.2369 -56.2369 -56.2369
   -56.2248 -56.2248 -56.2248 -56.2248 -56.2212 -56.2212 -56.2211 -56.2211
   -56.2101 -56.2101 -56.2100 -56.2100 -56.2072 -56.2071 -56.2071 -56.2071
   -56.1919 -56.1919 -56.1919 -56.1919 -56.1910 -56.1910 -56.1909 -56.1909
   -56.1900 -56.1900 -56.1899 -56.1899 -56.1839 -56.1839 -56.1838 -56.1838
   -56.1809 -56.1809 -56.1809 -56.1808 -46.9321 -46.9320 -42.0680 -42.0680
   -41.7993 -41.7993 -41.7708 -41.7708 -20.7600 -20.7599 -20.7546 -20.7546
   -20.7546 -20.7544 -10.6695 -10.5898 -10.3408 -10.3061 -10.2906 -10.2885
   -10.2279 -10.2161 -10.1923 -10.1825 -10.1810 -10.1505  -0.0925  -0.0715
     0.1866   0.1911   0.3272   0.3618   0.4802   0.5057   0.6124   0.6922
     0.8337   0.9698   1.0125   1.0924   1.1271   1.1914   1.2296   1.4274
     1.4692   1.5986   1.6024   1.6557   1.7122   1.8571   1.8985   1.9248
     2.0131   2.1182   2.1957   2.2257   2.3007   2.3128   2.3472   2.4514
     2.4764   2.4880   7.2288   7.3364   7.3781   7.4348   7.4480   7.4955
     8.0184   8.5548   8.8462   8.8800   9.1816   9.2375   9.3995   9.4552
     9.6145   9.8915   9.9599  10.0522  10.3883  10.5732  10.6477  10.6679
    10.9619  11.0855

          k = 0.0000 0.0278 0.0510 (103149 PWs)   bands (ev):

   -56.2758 -56.2758 -56.2757 -56.2757 -56.2729 -56.2729 -56.2728 -56.2728
   -56.2581 -56.2581 -56.2580 -56.2580 -56.2530 -56.2529 -56.2529 -56.2528
   -56.2505 -56.2505 -56.2505 -56.2505 -56.2369 -56.2369 -56.2369 -56.2369
   -56.2248 -56.2248 -56.2248 -56.2248 -56.2212 -56.2212 -56.2211 -56.2211
   -56.2101 -56.2101 -56.2100 -56.2100 -56.2072 -56.2071 -56.2071 -56.2071
   -56.1919 -56.1919 -56.1919 -56.1919 -56.1910 -56.1910 -56.1909 -56.1909
   -56.1900 -56.1900 -56.1899 -56.1899 -56.1839 -56.1839 -56.1838 -56.1838
   -56.1809 -56.1809 -56.1809 -56.1808 -46.9321 -46.9320 -42.0680 -42.0680
   -41.7993 -41.7993 -41.7708 -41.7708 -20.7601 -20.7600 -20.7547 -20.7546
   -20.7546 -20.7544 -10.6181 -10.5440 -10.3416 -10.3409 -10.3054 -10.2940
   -10.2394 -10.2269 -10.2128 -10.1857 -10.1850 -10.1548  -0.0075   0.0440
     0.2379   0.2747   0.3496   0.4021   0.5079   0.5174   0.6450   0.6516
     0.9103   0.9689   0.9978   1.0702   1.1567   1.2660   1.2954   1.4162
     1.4384   1.5519   1.5708   1.6484   1.7311   1.7606   1.8554   1.9194
     1.9414   2.0538   2.0814   2.1644   2.1813   2.2848   2.2984   2.3428
     2.3783   2.4627   7.2858   7.2863   7.3329   7.3646   7.4328   7.5093
     8.4711   8.6231   8.9319   9.0522   9.3117   9.4614   9.5309   9.7923
     9.8889   9.9537  10.1125  10.1355  10.3561  10.5049  10.5183  10.6506
    10.8877  11.0841

          k = 0.0000 0.0278-0.0765 (103140 PWs)   bands (ev):

   -56.2758 -56.2758 -56.2757 -56.2757 -56.2729 -56.2729 -56.2728 -56.2728
   -56.2581 -56.2581 -56.2580 -56.2580 -56.2529 -56.2529 -56.2529 -56.2528
   -56.2505 -56.2505 -56.2505 -56.2505 -56.2369 -56.2369 -56.2369 -56.2369
   -56.2248 -56.2248 -56.2248 -56.2248 -56.2212 -56.2212 -56.2211 -56.2211
   -56.2101 -56.2101 -56.2100 -56.2100 -56.2072 -56.2071 -56.2071 -56.2071
   -56.1919 -56.1919 -56.1919 -56.1919 -56.1910 -56.1910 -56.1909 -56.1909
   -56.1900 -56.1900 -56.1899 -56.1899 -56.1839 -56.1839 -56.1838 -56.1838
   -56.1809 -56.1809 -56.1809 -56.1809 -46.9321 -46.9320 -42.0680 -42.0680
   -41.7993 -41.7993 -41.7708 -41.7708 -20.7601 -20.7600 -20.7547 -20.7546
   -20.7546 -20.7544 -10.5825 -10.5117 -10.3753 -10.3592 -10.3078 -10.2922
   -10.2396 -10.2341 -10.2271 -10.1858 -10.1745 -10.1655   0.0359   0.0927
     0.2201   0.2528   0.3548   0.4251   0.5901   0.6396   0.7294   0.7360
     0.9421   0.9424   1.0085   1.0509   1.0723   1.2028   1.2961   1.3823
     1.4102   1.4658   1.5960   1.6037   1.6714   1.7826   1.9098   1.9185
     1.9302   1.9487   2.0478   2.1504   2.1915   2.2279   2.2423   2.3465
     2.3544   2.4339   7.2610   7.2684   7.2870   7.3923   7.4167   7.5332
     8.5972   8.6367   9.0670   9.2329   9.4446   9.5017   9.6855   9.9244
     9.9860   9.9931  10.0297  10.2038  10.3749  10.3840  10.5829  10.7971
    10.9984  11.0995

          k = 0.0239 0.0000 0.0085 (103248 PWs)   bands (ev):

   -56.2758 -56.2758 -56.2758 -56.2757 -56.2729 -56.2729 -56.2728 -56.2728
   -56.2581 -56.2581 -56.2580 -56.2580 -56.2530 -56.2529 -56.2529 -56.2528
   -56.2505 -56.2505 -56.2505 -56.2505 -56.2369 -56.2369 -56.2369 -56.2369
   -56.2248 -56.2248 -56.2248 -56.2248 -56.2212 -56.2212 -56.2211 -56.2211
   -56.2101 -56.2101 -56.2100 -56.2100 -56.2072 -56.2071 -56.2071 -56.2071
   -56.1919 -56.1919 -56.1919 -56.1919 -56.1910 -56.1910 -56.1909 -56.1909
   -56.1900 -56.1900 -56.1899 -56.1899 -56.1839 -56.1839 -56.1838 -56.1838
   -56.1809 -56.1809 -56.1809 -56.1808 -46.9321 -46.9320 -42.0680 -42.0680
   -41.7993 -41.7993 -41.7708 -41.7708 -20.7600 -20.7599 -20.7547 -20.7546
   -20.7546 -20.7544 -10.6963 -10.5231 -10.3862 -10.3042 -10.2936 -10.2693
   -10.2393 -10.2354 -10.2245 -10.1766 -10.1533 -10.1340  -0.1313  -0.0566
     0.2483   0.2512   0.3399   0.3549   0.4510   0.5582   0.7190   0.7298
     0.8588   0.9041   0.9485   0.9506   1.0356   1.0608   1.2966   1.3455
     1.4053   1.4825   1.6243   1.6932   1.7650   1.9123   1.9285   2.0157
     2.0265   2.1177   2.1275   2.2756   2.2761   2.3350   2.3629   2.5023
     2.5342   2.5470   7.1071   7.3646   7.3844   7.4249   7.4432   7.4872
     7.7811   8.8036   8.8117   8.8955   9.0673   9.1324   9.3173   9.4817
     9.6201   9.8910  10.0801  10.0872  10.3633  10.5896  10.6091  10.7622
    11.0328  11.1440

          k = 0.0239 0.0000 0.0340 (103185 PWs)   bands (ev):

   -56.2758 -56.2758 -56.2757 -56.2757 -56.2729 -56.2729 -56.2728 -56.2728
   -56.2581 -56.2581 -56.2580 -56.2580 -56.2530 -56.2529 -56.2529 -56.2528
   -56.2505 -56.2505 -56.2505 -56.2505 -56.2369 -56.2369 -56.2369 -56.2369
   -56.2248 -56.2248 -56.2248 -56.2248 -56.2212 -56.2212 -56.2211 -56.2211
   -56.2101 -56.2101 -56.2100 -56.2100 -56.2072 -56.2071 -56.2071 -56.2071
   -56.1919 -56.1919 -56.1919 -56.1919 -56.1910 -56.1910 -56.1909 -56.1909
   -56.1900 -56.1900 -56.1899 -56.1899 -56.1839 -56.1839 -56.1838 -56.1838
   -56.1809 -56.1809 -56.1809 -56.1808 -46.9321 -46.9320 -42.0680 -42.0680
   -41.7993 -41.7993 -41.7708 -41.7708 -20.7600 -20.7599 -20.7547 -20.7546
   -20.7546 -20.7544 -10.6636 -10.5000 -10.3750 -10.3204 -10.3044 -10.2763
   -10.2513 -10.2446 -10.2265 -10.1881 -10.1634 -10.1314   0.0239   0.0329
     0.2681   0.2895   0.3621   0.4022   0.4975   0.5175   0.7798   0.7833
     0.8377   0.8855   0.9778   1.0316   1.0641   1.1040   1.2145   1.2726
     1.3415   1.3663   1.6045   1.6348   1.8130   1.8140   1.9480   2.0083
     2.0506   2.1180   2.1417   2.1783   2.2432   2.2444   2.2534   2.3867
     2.4309   2.5072   7.2063   7.3112   7.3650   7.3855   7.4891   7.5158
     8.1709   8.7448   8.8656   8.9041   9.0129   9.2335   9.5200   9.5642
     9.9757  10.0218  10.0744  10.2972  10.4613  10.7324  10.8138  10.8928
    11.1205  11.1472

          k = 0.0239 0.0000 0.0595 (103121 PWs)   bands (ev):

   -56.2758 -56.2758 -56.2757 -56.2757 -56.2729 -56.2729 -56.2728 -56.2728
   -56.2581 -56.2581 -56.2580 -56.2580 -56.2529 -56.2529 -56.2529 -56.2528
   -56.2505 -56.2505 -56.2505 -56.2505 -56.2369 -56.2369 -56.2369 -56.2369
   -56.2248 -56.2248 -56.2248 -56.2248 -56.2212 -56.2212 -56.2211 -56.2211
   -56.2101 -56.2101 -56.2100 -56.2100 -56.2072 -56.2071 -56.2071 -56.2071
   -56.1919 -56.1919 -56.1919 -56.1919 -56.1910 -56.1910 -56.1909 -56.1909
   -56.1900 -56.1900 -56.1899 -56.1899 -56.1839 -56.1839 -56.1838 -56.1838
   -56.1809 -56.1809 -56.1809 -56.1809 -46.9321 -46.9320 -42.0680 -42.0680
   -41.7993 -41.7993 -41.7708 -41.7708 -20.7601 -20.7600 -20.7547 -20.7546
   -20.7546 -20.7544 -10.6091 -10.4597 -10.3560 -10.3557 -10.3240 -10.2791
   -10.2727 -10.2553 -10.2531 -10.1826 -10.1687 -10.1397   0.0602   0.1512
     0.1990   0.2628   0.4449   0.4760   0.5880   0.6082   0.6441   0.7379
     0.7931   0.8633   1.0028   1.0944   1.1018   1.2251   1.2676   1.2922
     1.3473   1.3898   1.5768   1.5796   1.7220   1.8709   1.9478   1.9576
     1.9706   2.0442   2.0582   2.1201   2.1595   2.2638   2.2816   2.3241
     2.3507   2.4891   7.1903   7.2412   7.3024   7.3391   7.4853   7.5329
     8.6297   8.6962   8.9813   9.0179   9.0671   9.6356   9.6645   9.7147
     9.7888  10.0289  10.1154  10.2533  10.2829  10.4348  10.6180  10.7925
    11.1532  11.1907

          k = 0.0239 0.0000-0.0680 (103158 PWs)   bands (ev):

   -56.2758 -56.2758 -56.2757 -56.2757 -56.2729 -56.2729 -56.2728 -56.2728
   -56.2581 -56.2581 -56.2580 -56.2580 -56.2530 -56.2529 -56.2529 -56.2528
   -56.2505 -56.2505 -56.2505 -56.2505 -56.2369 -56.2369 -56.2369 -56.2369
   -56.2248 -56.2248 -56.2248 -56.2248 -56.2212 -56.2212 -56.2211 -56.2211
   -56.2101 -56.2101 -56.2100 -56.2100 -56.2072 -56.2071 -56.2071 -56.2071
   -56.1919 -56.1919 -56.1919 -56.1919 -56.1910 -56.1910 -56.1909 -56.1909
   -56.1900 -56.1900 -56.1899 -56.1899 -56.1839 -56.1839 -56.1838 -56.1838
   -56.1809 -56.1809 -56.1809 -56.1808 -46.9321 -46.9320 -42.0680 -42.0680
   -41.7993 -41.7993 -41.7708 -41.7708 -20.7601 -20.7600 -20.7547 -20.7546
   -20.7546 -20.7544 -10.5937 -10.4453 -10.3730 -10.3463 -10.3154 -10.2935
   -10.2878 -10.2599 -10.2454 -10.1743 -10.1692 -10.1533   0.0150   0.0557
     0.2070   0.2486   0.4071   0.4361   0.5140   0.6392   0.6701   0.6999
     0.7327   0.8482   1.0469   1.1089   1.1243   1.2063   1.3760   1.3854
     1.4495   1.5398   1.5936   1.6336   1.7279   1.8496   1.8901   1.9268
     1.9574   1.9928   2.0671   2.1167   2.2255   2.2412   2.3057   2.3675
     2.3766   2.4672   7.1479   7.2212   7.2499   7.3070   7.4355   7.5201
     8.6744   8.7149   9.0309   9.1412   9.1521   9.4699   9.5440   9.7317
     9.8013   9.8763   9.9602  10.0637  10.1224  10.2858  10.4779  10.5233
    11.0847  11.0857

          k = 0.0239 0.0000-0.0425 (103162 PWs)   bands (ev):

   -56.2758 -56.2758 -56.2757 -56.2757 -56.2729 -56.2729 -56.2728 -56.2728
   -56.2581 -56.2581 -56.2580 -56.2580 -56.2530 -56.2529 -56.2529 -56.2528
   -56.2505 -56.2505 -56.2505 -56.2505 -56.2369 -56.2369 -56.2369 -56.2369
   -56.2248 -56.2248 -56.2248 -56.2248 -56.2212 -56.2212 -56.2211 -56.2211
   -56.2101 -56.2101 -56.2100 -56.2100 -56.2072 -56.2071 -56.2071 -56.2071
   -56.1919 -56.1919 -56.1919 -56.1919 -56.1910 -56.1910 -56.1909 -56.1909
   -56.1900 -56.1900 -56.1899 -56.1899 -56.1839 -56.1839 -56.1838 -56.1838
   -56.1809 -56.1809 -56.1809 -56.1808 -46.9321 -46.9320 -42.0680 -42.0680
   -41.7993 -41.7993 -41.7708 -41.7708 -20.7600 -20.7600 -20.7547 -20.7546
   -20.7546 -20.7544 -10.6428 -10.4805 -10.3601 -10.3291 -10.2986 -10.2855
   -10.2815 -10.2379 -10.2363 -10.1745 -10.1703 -10.1507  -0.0498  -0.0487
     0.2182   0.2483   0.3201   0.3608   0.4262   0.4581   0.6196   0.6851
     0.7693   0.8162   1.0508   1.1272   1.1524   1.3277   1.3309   1.4704
     1.5343   1.6128   1.6254   1.7136   1.7963   1.8215   1.8486   1.9267
     1.9763   2.0861   2.0871   2.1695   2.2923   2.3203   2.3376   2.4216
     2.4707   2.4766   7.1512   7.2197   7.2443   7.3202   7.4111   7.4836
     8.2347   8.8221   8.8679   8.9784   9.1909   9.3330   9.3793   9.6348
     9.7085   9.7162   9.8170  10.0247  10.1367  10.2947  10.3439  10.4068
    10.8537  11.1234

          k = 0.0239 0.0000-0.0170 (103170 PWs)   bands (ev):

   -56.2758 -56.2758 -56.2758 -56.2757 -56.2729 -56.2729 -56.2728 -56.2728
   -56.2581 -56.2581 -56.2580 -56.2580 -56.2530 -56.2529 -56.2529 -56.2528
   -56.2505 -56.2505 -56.2505 -56.2505 -56.2369 -56.2369 -56.2369 -56.2369
   -56.2248 -56.2248 -56.2248 -56.2248 -56.2212 -56.2212 -56.2212 -56.2211
   -56.2101 -56.2101 -56.2100 -56.2100 -56.2072 -56.2071 -56.2071 -56.2071
   -56.1919 -56.1919 -56.1919 -56.1919 -56.1910 -56.1910 -56.1909 -56.1909
   -56.1900 -56.1900 -56.1899 -56.1899 -56.1839 -56.1839 -56.1838 -56.1838
   -56.1809 -56.1809 -56.1809 -56.1808 -46.9321 -46.9320 -42.0680 -42.0680
   -41.7993 -41.7993 -41.7708 -41.7708 -20.7600 -20.7599 -20.7547 -20.7546
   -20.7546 -20.7544 -10.6880 -10.5153 -10.3803 -10.3052 -10.2898 -10.2634
   -10.2571 -10.2408 -10.2267 -10.1693 -10.1584 -10.1429  -0.1407  -0.0868
     0.2093   0.2350   0.2911   0.3132   0.4351   0.4777   0.6327   0.7351
     0.8472   0.8506   0.9560   0.9980   1.1716   1.2182   1.2391   1.4148
     1.5300   1.5488   1.6351   1.7301   1.7921   1.8771   1.9063   1.9860
     2.0389   2.1164   2.1544   2.2453   2.3066   2.3363   2.4336   2.4676
     2.5210   2.5599   7.0754   7.2954   7.3275   7.3969   7.4251   7.4725
     7.7992   8.6915   8.8716   9.0147   9.1205   9.2514   9.4094   9.4737
     9.5074   9.6500   9.8330  10.0376  10.0530  10.3824  10.4750  10.5070
    11.0129  11.1258

          k = 0.0239 0.0278 0.0085 (103193 PWs)   bands (ev):

   -56.2758 -56.2758 -56.2758 -56.2757 -56.2729 -56.2729 -56.2728 -56.2728
   -56.2581 -56.2581 -56.2580 -56.2580 -56.2530 -56.2529 -56.2529 -56.2528
   -56.2505 -56.2505 -56.2505 -56.2505 -56.2369 -56.2369 -56.2369 -56.2369
   -56.2248 -56.2248 -56.2248 -56.2248 -56.2212 -56.2212 -56.2211 -56.2211
   -56.2101 -56.2101 -56.2100 -56.2100 -56.2072 -56.2071 -56.2071 -56.2071
   -56.1919 -56.1919 -56.1919 -56.1919 -56.1910 -56.1910 -56.1909 -56.1909
   -56.1900 -56.1900 -56.1899 -56.1899 -56.1839 -56.1839 -56.1838 -56.1838
   -56.1809 -56.1809 -56.1809 -56.1808 -46.9321 -46.9320 -42.0680 -42.0680
   -41.7993 -41.7993 -41.7708 -41.7708 -20.7600 -20.7599 -20.7547 -20.7546
   -20.7545 -20.7544 -10.6662 -10.5879 -10.3363 -10.3032 -10.2999 -10.2915
   -10.2335 -10.2101 -10.1957 -10.1953 -10.1655 -10.1504  -0.1002  -0.0549
     0.1897   0.1918   0.3256   0.3260   0.5196   0.5439   0.6199   0.6248
     0.8419   0.9369   1.0241   1.0340   1.1706   1.2471   1.2917   1.3821
     1.4045   1.5353   1.6626   1.6681   1.7329   1.8502   1.8565   1.9973
     2.0156   2.0863   2.1935   2.2020   2.2870   2.3230   2.3715   2.4415
     2.4683   2.5149   7.2248   7.3744   7.4057   7.4269   7.4301   7.4617
     8.0037   8.5299   8.8589   8.9658   9.1127   9.1334   9.3814   9.5287
     9.5886   9.9046  10.0382  10.1808  10.2432  10.5040  10.5985  10.6941
    11.0434  11.1228

          k = 0.0239 0.0278 0.0340 (103157 PWs)   bands (ev):

   -56.2758 -56.2758 -56.2757 -56.2757 -56.2729 -56.2729 -56.2728 -56.2728
   -56.2581 -56.2581 -56.2580 -56.2580 -56.2530 -56.2529 -56.2529 -56.2528
   -56.2505 -56.2505 -56.2505 -56.2505 -56.2369 -56.2369 -56.2369 -56.2369
   -56.2248 -56.2248 -56.2248 -56.2248 -56.2212 -56.2212 -56.2211 -56.2211
   -56.2101 -56.2101 -56.2100 -56.2100 -56.2072 -56.2071 -56.2071 -56.2071
   -56.1919 -56.1919 -56.1919 -56.1919 -56.1910 -56.1910 -56.1909 -56.1909
   -56.1900 -56.1900 -56.1899 -56.1899 -56.1839 -56.1839 -56.1838 -56.1838
   -56.1809 -56.1809 -56.1809 -56.1808 -46.9321 -46.9320 -42.0680 -42.0680
   -41.7993 -41.7993 -41.7708 -41.7708 -20.7600 -20.7600 -20.7547 -20.7546
   -20.7545 -20.7544 -10.6351 -10.5614 -10.3341 -10.3097 -10.3067 -10.2939
   -10.2555 -10.2251 -10.2117 -10.2026 -10.1658 -10.1432   0.0268   0.0269
     0.2510   0.2669   0.3566   0.3694   0.5118   0.5408   0.6215   0.6910
     0.8433   0.8807   1.0782   1.0851   1.1022   1.2405   1.3225   1.3582
     1.4242   1.5197   1.5281   1.6314   1.7262   1.8189   1.8270   1.9545
     2.0372   2.0518   2.1127   2.1748   2.2523   2.2851   2.2881   2.3646
     2.3815   2.4122   7.3110   7.3413   7.3758   7.4145   7.4545   7.4822
     8.2852   8.5539   8.9840   9.0127   9.1131   9.4142   9.5065   9.6215
     9.8327   9.9788  10.0963  10.3402  10.4124  10.5554  10.6797  10.7223
    11.0286  11.0803

          k = 0.0239 0.0278 0.0595 (103140 PWs)   bands (ev):

   -56.2758 -56.2758 -56.2757 -56.2757 -56.2729 -56.2729 -56.2728 -56.2728
   -56.2581 -56.2581 -56.2580 -56.2580 -56.2529 -56.2529 -56.2529 -56.2528
   -56.2505 -56.2505 -56.2505 -56.2505 -56.2369 -56.2369 -56.2369 -56.2369
   -56.2248 -56.2248 -56.2248 -56.2248 -56.2212 -56.2212 -56.2211 -56.2211
   -56.2101 -56.2101 -56.2100 -56.2100 -56.2072 -56.2071 -56.2071 -56.2071
   -56.1919 -56.1919 -56.1919 -56.1919 -56.1910 -56.1910 -56.1909 -56.1909
   -56.1900 -56.1900 -56.1899 -56.1899 -56.1839 -56.1839 -56.1838 -56.1838
   -56.1809 -56.1809 -56.1809 -56.1809 -46.9321 -46.9320 -42.0680 -42.0680
   -41.7993 -41.7993 -41.7708 -41.7708 -20.7601 -20.7600 -20.7547 -20.7546
   -20.7545 -20.7544 -10.5825 -10.5146 -10.3523 -10.3455 -10.3123 -10.2970
   -10.2625 -10.2370 -10.2283 -10.2064 -10.1676 -10.1495   0.0412   0.0686
     0.2338   0.2759   0.4220   0.4469   0.5785   0.6154   0.6705   0.7054
     0.8294   0.8670   1.0067   1.0641   1.1485   1.2533   1.3154   1.3875
     1.4595   1.5475   1.5777   1.6430   1.6437   1.7495   1.8016   1.9222
     1.9853   2.0257   2.0699   2.1114   2.1692   2.2467   2.2514   2.3285
     2.3355   2.4089   7.2488   7.3034   7.3126   7.4047   7.4182   7.5072
     8.5792   8.5816   9.1254   9.1414   9.2532   9.5647   9.7611   9.8287
     9.8669   9.9736  10.0747  10.1760  10.2760  10.3853  10.4806  10.7778
    11.1172  11.2068

          k = 0.0239 0.0278-0.0680 (103139 PWs)   bands (ev):

   -56.2758 -56.2758 -56.2757 -56.2757 -56.2729 -56.2729 -56.2728 -56.2728
   -56.2581 -56.2581 -56.2580 -56.2580 -56.2530 -56.2529 -56.2529 -56.2528
   -56.2505 -56.2505 -56.2505 -56.2505 -56.2369 -56.2369 -56.2369 -56.2369
   -56.2248 -56.2248 -56.2248 -56.2248 -56.2212 -56.2212 -56.2211 -56.2211
   -56.2101 -56.2101 -56.2100 -56.2100 -56.2072 -56.2071 -56.2071 -56.2071
   -56.1919 -56.1919 -56.1919 -56.1919 -56.1910 -56.1910 -56.1909 -56.1909
   -56.1900 -56.1900 -56.1899 -56.1899 -56.1839 -56.1839 -56.1838 -56.1838
   -56.1809 -56.1809 -56.1809 -56.1808 -46.9321 -46.9320 -42.0680 -42.0680
   -41.7993 -41.7993 -41.7708 -41.7708 -20.7601 -20.7600 -20.7547 -20.7546
   -20.7545 -20.7544 -10.5668 -10.4983 -10.3692 -10.3558 -10.3140 -10.2983
   -10.2503 -10.2374 -10.2359 -10.1874 -10.1774 -10.1663  -0.0238  -0.0172
     0.2538   0.2935   0.3583   0.3886   0.5832   0.6079   0.6306   0.7092
     0.8330   0.8374   1.0973   1.1208   1.1813   1.3110   1.3168   1.3953
     1.4952   1.5516   1.5802   1.6222   1.7329   1.8207   1.8860   1.9049
     1.9683   2.0383   2.0385   2.1123   2.1195   2.2337   2.2542   2.3113
     2.3995   2.4501   7.1928   7.2559   7.2837   7.3716   7.3722   7.4893
     8.6466   8.6869   9.0333   9.1881   9.3568   9.4094   9.6130   9.6626
     9.7607   9.7871   9.9330  10.2766  10.3726  10.4927  10.5038  10.7767
    10.9061  11.0104

          k = 0.0239 0.0278-0.0425 (103152 PWs)   bands (ev):

   -56.2758 -56.2758 -56.2757 -56.2757 -56.2729 -56.2729 -56.2728 -56.2728
   -56.2581 -56.2581 -56.2580 -56.2580 -56.2530 -56.2529 -56.2529 -56.2528
   -56.2505 -56.2505 -56.2505 -56.2505 -56.2369 -56.2369 -56.2369 -56.2369
   -56.2248 -56.2248 -56.2248 -56.2248 -56.2212 -56.2212 -56.2211 -56.2211
   -56.2101 -56.2101 -56.2100 -56.2100 -56.2072 -56.2071 -56.2071 -56.2071
   -56.1919 -56.1919 -56.1919 -56.1919 -56.1910 -56.1910 -56.1909 -56.1909
   -56.1900 -56.1900 -56.1899 -56.1899 -56.1839 -56.1839 -56.1838 -56.1838
   -56.1809 -56.1809 -56.1809 -56.1808 -46.9321 -46.9320 -42.0680 -42.0680
   -41.7993 -41.7993 -41.7708 -41.7708 -20.7600 -20.7600 -20.7547 -20.7546
   -20.7546 -20.7544 -10.6141 -10.5402 -10.3396 -10.3331 -10.3017 -10.2926
   -10.2489 -10.2240 -10.2124 -10.1854 -10.1850 -10.1710  -0.0854  -0.0741
     0.2354   0.2421   0.3289   0.3499   0.4524   0.4544   0.5369   0.5701
     0.8665   0.9531   1.1049   1.2003   1.2586   1.2983   1.3651   1.4538
     1.5498   1.5737   1.6252   1.7137   1.7608   1.8040   1.8774   1.9033
     1.9325   2.0596   2.0924   2.1327   2.2348   2.2959   2.3544   2.3819
     2.4534   2.4884   7.2203   7.2540   7.2655   7.3459   7.3656   7.4349
     8.4392   8.7255   8.8850   8.9142   9.2269   9.2409   9.5370   9.5874
     9.7257   9.7608   9.9663  10.0791  10.1886  10.3183  10.3661  10.4508
    10.9664  10.9753

          k = 0.0239 0.0278-0.0170 (103186 PWs)   bands (ev):

   -56.2758 -56.2758 -56.2758 -56.2757 -56.2729 -56.2729 -56.2728 -56.2728
   -56.2581 -56.2581 -56.2580 -56.2580 -56.2530 -56.2529 -56.2529 -56.2528
   -56.2505 -56.2505 -56.2505 -56.2505 -56.2369 -56.2369 -56.2369 -56.2369
   -56.2248 -56.2248 -56.2248 -56.2248 -56.2212 -56.2212 -56.2212 -56.2211
   -56.2101 -56.2101 -56.2100 -56.2100 -56.2072 -56.2071 -56.2071 -56.2071
   -56.1919 -56.1919 -56.1919 -56.1919 -56.1910 -56.1910 -56.1909 -56.1909
   -56.1900 -56.1900 -56.1899 -56.1899 -56.1839 -56.1839 -56.1838 -56.1838
   -56.1809 -56.1809 -56.1809 -56.1808 -46.9321 -46.9320 -42.0680 -42.0680
   -41.7993 -41.7993 -41.7708 -41.7708 -20.7600 -20.7599 -20.7547 -20.7546
   -20.7545 -20.7544 -10.6578 -10.5795 -10.3388 -10.3136 -10.2944 -10.2817
   -10.2323 -10.2115 -10.2060 -10.1859 -10.1720 -10.1637  -0.1278  -0.0935
     0.1746   0.1785   0.2906   0.3159   0.4717   0.4933   0.5426   0.5722
     0.9002   0.9182   1.0783   1.1341   1.2262   1.2940   1.3019   1.3836
     1.5505   1.5654   1.6795   1.6802   1.7728   1.8417   1.8723   1.9733
     1.9738   2.0732   2.1400   2.1444   2.3285   2.3757   2.4002   2.4722
     2.5081   2.5126   7.1887   7.3140   7.3311   7.3730   7.4085   7.4368
     8.0685   8.5806   8.8646   8.8663   9.1000   9.1716   9.5551   9.5735
     9.5947   9.7714   9.8653  10.0106  10.1413  10.2983  10.3444  10.4068
    11.0314  11.0552

          k = 0.0478 0.0000 0.0170 (103144 PWs)   bands (ev):

   -56.2758 -56.2758 -56.2757 -56.2757 -56.2729 -56.2729 -56.2728 -56.2728
   -56.2581 -56.2581 -56.2580 -56.2580 -56.2530 -56.2529 -56.2529 -56.2528
   -56.2505 -56.2505 -56.2505 -56.2505 -56.2369 -56.2369 -56.2369 -56.2369
   -56.2248 -56.2248 -56.2248 -56.2248 -56.2212 -56.2212 -56.2211 -56.2211
   -56.2101 -56.2101 -56.2100 -56.2100 -56.2072 -56.2071 -56.2071 -56.2071
   -56.1919 -56.1919 -56.1919 -56.1919 -56.1910 -56.1910 -56.1909 -56.1909
   -56.1900 -56.1900 -56.1899 -56.1899 -56.1839 -56.1839 -56.1838 -56.1838
   -56.1809 -56.1809 -56.1809 -56.1808 -46.9321 -46.9320 -42.0680 -42.0680
   -41.7993 -41.7993 -41.7708 -41.7708 -20.7600 -20.7599 -20.7547 -20.7547
   -20.7546 -20.7544 -10.6264 -10.4902 -10.3656 -10.3567 -10.3060 -10.2840
   -10.2615 -10.2522 -10.2096 -10.1930 -10.1555 -10.1486  -0.0429   0.1233
     0.3061   0.3295   0.3698   0.4152   0.4523   0.5750   0.6879   0.7107
     0.7735   0.8660   0.8849   0.9688   1.0641   1.1935   1.2726   1.4332
     1.4544   1.5537   1.6161   1.6325   1.6923   1.9014   1.9544   1.9666
     1.9714   1.9970   2.1104   2.1141   2.1735   2.2054   2.3418   2.4330
     2.4359   2.4923   7.2109   7.3037   7.3531   7.3825   7.3998   7.4383
     8.3735   8.7919   8.9302   8.9962   9.0413   9.1601   9.5313   9.7909
     9.9294  10.0390  10.1256  10.2152  10.4094  10.5478  10.5537  10.8467
    10.9184  11.2017

          k = 0.0478 0.0000 0.0425 (103171 PWs)   bands (ev):

   -56.2758 -56.2758 -56.2757 -56.2757 -56.2729 -56.2729 -56.2728 -56.2728
   -56.2581 -56.2581 -56.2580 -56.2580 -56.2529 -56.2529 -56.2529 -56.2528
   -56.2505 -56.2505 -56.2505 -56.2505 -56.2369 -56.2369 -56.2369 -56.2369
   -56.2248 -56.2248 -56.2248 -56.2248 -56.2212 -56.2212 -56.2211 -56.2211
   -56.2101 -56.2101 -56.2100 -56.2100 -56.2072 -56.2071 -56.2071 -56.2071
   -56.1919 -56.1919 -56.1919 -56.1919 -56.1910 -56.1910 -56.1909 -56.1909
   -56.1900 -56.1900 -56.1899 -56.1899 -56.1839 -56.1839 -56.1838 -56.1838
   -56.1809 -56.1809 -56.1809 -56.1809 -46.9321 -46.9320 -42.0680 -42.0680
   -41.7993 -41.7993 -41.7708 -41.7708 -20.7600 -20.7599 -20.7548 -20.7547
   -20.7546 -20.7544 -10.5878 -10.4759 -10.3731 -10.3434 -10.3199 -10.2899
   -10.2806 -10.2529 -10.2296 -10.1984 -10.1564 -10.1479   0.0722   0.1024
     0.2903   0.2925   0.4661   0.4821   0.5214   0.5638   0.6669   0.7478
     0.7486   0.8773   1.0055   1.0416   1.0771   1.0963   1.2010   1.3697
     1.3993   1.5142   1.5341   1.7023   1.7507   1.8901   1.9046   1.9531
     1.9715   2.0100   2.0637   2.1215   2.1254   2.2446   2.2895   2.3211
     2.3778   2.4668   7.2033   7.2515   7.3786   7.3852   7.4187   7.4461
     8.6756   8.7186   8.8977   8.9947   9.0877   9.4273   9.4998   9.8831
    10.0112  10.0519  10.1133  10.2249  10.2772  10.5112  10.5605  10.7772
    10.9442  11.2955

          k = 0.0478 0.0000 0.0680 (103188 PWs)   bands (ev):

   -56.2758 -56.2758 -56.2757 -56.2757 -56.2729 -56.2729 -56.2728 -56.2728
   -56.2581 -56.2581 -56.2580 -56.2580 -56.2530 -56.2529 -56.2529 -56.2528
   -56.2505 -56.2505 -56.2505 -56.2505 -56.2369 -56.2369 -56.2369 -56.2369
   -56.2248 -56.2248 -56.2248 -56.2248 -56.2212 -56.2212 -56.2211 -56.2211
   -56.2101 -56.2101 -56.2100 -56.2100 -56.2072 -56.2071 -56.2071 -56.2071
   -56.1919 -56.1919 -56.1919 -56.1919 -56.1910 -56.1910 -56.1909 -56.1909
   -56.1900 -56.1900 -56.1899 -56.1899 -56.1839 -56.1839 -56.1838 -56.1838
   -56.1809 -56.1809 -56.1809 -56.1808 -46.9321 -46.9320 -42.0680 -42.0680
   -41.7993 -41.7993 -41.7708 -41.7708 -20.7600 -20.7600 -20.7548 -20.7547
   -20.7546 -20.7544 -10.5397 -10.4479 -10.3705 -10.3597 -10.3194 -10.2992
   -10.2796 -10.2747 -10.2605 -10.1881 -10.1619 -10.1602  -0.0105   0.0673
     0.2321   0.2564   0.4233   0.4441   0.5575   0.5801   0.6650   0.7165
     0.7264   0.8814   0.9056   1.0390   1.1385   1.3267   1.3407   1.4193
     1.4209   1.5410   1.6483   1.7880   1.8235   1.8502   1.9106   1.9527
     1.9925   2.0050   2.0791   2.1054   2.1293   2.1898   2.1960   2.2345
     2.3886   2.4961   7.1134   7.1870   7.3330   7.3562   7.3860   7.4172
     8.6927   8.8755   8.9998   9.0071   9.2903   9.3783   9.5373   9.6161
     9.6555   9.7760  10.0304  10.0886  10.1625  10.2433  10.3767  10.4316
    11.0841  11.2198

          k = 0.0478 0.0000-0.0595 (103196 PWs)   bands (ev):

   -56.2758 -56.2758 -56.2757 -56.2757 -56.2729 -56.2729 -56.2728 -56.2728
   -56.2581 -56.2581 -56.2580 -56.2580 -56.2530 -56.2529 -56.2529 -56.2528
   -56.2505 -56.2505 -56.2505 -56.2505 -56.2369 -56.2369 -56.2369 -56.2369
   -56.2248 -56.2248 -56.2248 -56.2248 -56.2212 -56.2212 -56.2211 -56.2211
   -56.2101 -56.2101 -56.2100 -56.2100 -56.2072 -56.2071 -56.2071 -56.2071
   -56.1919 -56.1919 -56.1919 -56.1919 -56.1910 -56.1910 -56.1909 -56.1909
   -56.1900 -56.1900 -56.1899 -56.1899 -56.1839 -56.1839 -56.1838 -56.1838
   -56.1809 -56.1809 -56.1809 -56.1808 -46.9321 -46.9320 -42.0680 -42.0680
   -41.7993 -41.7993 -41.7708 -41.7708 -20.7601 -20.7600 -20.7548 -20.7547
   -20.7546 -20.7544 -10.5469 -10.4262 -10.3764 -10.3555 -10.3117 -10.3045
   -10.2936 -10.2585 -10.2575 -10.1874 -10.1739 -10.1685  -0.0545  -0.0361
     0.1820   0.2240   0.3591   0.3730   0.4550   0.4720   0.5436   0.6383
     0.7463   0.9416   1.0988   1.1432   1.2442   1.3722   1.3823   1.5073
     1.5200   1.6874   1.7396   1.7796   1.7909   1.8233   1.8324   1.9119
     1.9294   2.0387   2.1052   2.1768   2.1991   2.1991   2.2650   2.3215
     2.4478   2.4760   7.0949   7.1844   7.2692   7.2697   7.2993   7.3802
     8.6232   8.7678   8.9616   9.0738   9.1998   9.2683   9.3933   9.4252
     9.5842   9.7437   9.8095   9.9371   9.9752  10.0718  10.2746  10.4551
    11.0158  11.2164

          k = 0.0478 0.0000-0.0340 (103197 PWs)   bands (ev):

   -56.2758 -56.2758 -56.2757 -56.2757 -56.2729 -56.2729 -56.2728 -56.2728
   -56.2581 -56.2581 -56.2580 -56.2580 -56.2530 -56.2529 -56.2529 -56.2528
   -56.2505 -56.2505 -56.2505 -56.2505 -56.2369 -56.2369 -56.2369 -56.2369
   -56.2248 -56.2248 -56.2248 -56.2248 -56.2212 -56.2212 -56.2212 -56.2211
   -56.2101 -56.2101 -56.2100 -56.2100 -56.2072 -56.2071 -56.2071 -56.2071
   -56.1919 -56.1919 -56.1919 -56.1919 -56.1910 -56.1910 -56.1909 -56.1909
   -56.1900 -56.1900 -56.1899 -56.1899 -56.1839 -56.1839 -56.1838 -56.1838
   -56.1809 -56.1809 -56.1809 -56.1808 -46.9321 -46.9320 -42.0680 -42.0680
   -41.7993 -41.7993 -41.7708 -41.7708 -20.7600 -20.7600 -20.7548 -20.7547
   -20.7546 -20.7544 -10.5972 -10.4526 -10.3573 -10.3310 -10.3253 -10.2945
   -10.2841 -10.2494 -10.2292 -10.1991 -10.1676 -10.1664  -0.1323  -0.0027
     0.1661   0.2616   0.3493   0.3743   0.3895   0.4189   0.4807   0.5262
     0.6593   0.9613   1.1611   1.1831   1.3452   1.3681   1.4084   1.4661
     1.5683   1.7029   1.7263   1.7720   1.8188   1.8244   1.8633   1.8726
     1.9608   2.0161   2.0492   2.1409   2.2486   2.3492   2.3621   2.4059
     2.4306   2.5103   7.1435   7.1712   7.2219   7.2915   7.2931   7.3700
     8.3569   8.7633   8.8428   9.1202   9.1403   9.2654   9.3745   9.5602
     9.6264   9.6594   9.7734   9.9156   9.9766  10.0138  10.1867  10.2014
    10.8458  11.2944

          k = 0.0478 0.0000-0.0085 (103157 PWs)   bands (ev):

   -56.2758 -56.2758 -56.2757 -56.2757 -56.2729 -56.2729 -56.2728 -56.2728
   -56.2581 -56.2581 -56.2580 -56.2580 -56.2530 -56.2529 -56.2529 -56.2528
   -56.2505 -56.2505 -56.2505 -56.2505 -56.2369 -56.2369 -56.2369 -56.2369
   -56.2248 -56.2248 -56.2248 -56.2248 -56.2212 -56.2212 -56.2211 -56.2211
   -56.2101 -56.2101 -56.2100 -56.2100 -56.2072 -56.2071 -56.2071 -56.2071
   -56.1919 -56.1919 -56.1919 -56.1919 -56.1910 -56.1910 -56.1909 -56.1909
   -56.1900 -56.1900 -56.1899 -56.1899 -56.1839 -56.1839 -56.1838 -56.1838
   -56.1809 -56.1809 -56.1809 -56.1808 -46.9321 -46.9320 -42.0680 -42.0680
   -41.7993 -41.7993 -41.7708 -41.7708 -20.7600 -20.7599 -20.7548 -20.7547
   -20.7546 -20.7544 -10.6301 -10.4822 -10.3601 -10.3413 -10.3113 -10.2778
   -10.2713 -10.2576 -10.2107 -10.1892 -10.1585 -10.1582  -0.1349   0.0704
     0.2398   0.2898   0.3025   0.3872   0.4340   0.4730   0.5530   0.6103
     0.6878   0.8877   0.9076   1.1543   1.2140   1.3407   1.3665   1.4541
     1.5453   1.6117   1.6867   1.7107   1.7777   1.8533   1.8963   1.9371
     1.9686   2.0199   2.0986   2.1955   2.2403   2.2847   2.3496   2.4028
     2.4781   2.5023   7.1541   7.2617   7.2654   7.3505   7.3623   7.4033
     8.2320   8.8083   9.0124   9.0803   9.1143   9.2007   9.2794   9.5830
     9.6804   9.8594   9.9617  10.0076  10.0787  10.2606  10.3410  10.3829
    10.8420  11.1403

          k = 0.0478 0.0278 0.0170 (103157 PWs)   bands (ev):

   -56.2758 -56.2758 -56.2757 -56.2757 -56.2729 -56.2729 -56.2728 -56.2728
   -56.2581 -56.2581 -56.2580 -56.2580 -56.2530 -56.2529 -56.2529 -56.2528
   -56.2505 -56.2505 -56.2505 -56.2505 -56.2369 -56.2369 -56.2369 -56.2369
   -56.2248 -56.2248 -56.2248 -56.2248 -56.2212 -56.2212 -56.2211 -56.2211
   -56.2101 -56.2101 -56.2100 -56.2100 -56.2072 -56.2071 -56.2071 -56.2071
   -56.1919 -56.1919 -56.1919 -56.1919 -56.1910 -56.1910 -56.1909 -56.1909
   -56.1900 -56.1900 -56.1899 -56.1899 -56.1839 -56.1839 -56.1838 -56.1838
   -56.1809 -56.1809 -56.1809 -56.1808 -46.9321 -46.9320 -42.0680 -42.0680
   -41.7993 -41.7993 -41.7708 -41.7708 -20.7600 -20.7599 -20.7547 -20.7547
   -20.7545 -20.7544 -10.6016 -10.5387 -10.3584 -10.3308 -10.3146 -10.2906
   -10.2544 -10.2362 -10.2108 -10.2008 -10.1601 -10.1520  -0.0269   0.0530
     0.2554   0.2887   0.3850   0.3869   0.5234   0.5638   0.6230   0.6396
     0.8106   0.9612   1.0270   1.0277   1.1836   1.1919   1.3108   1.4225
     1.5091   1.5096   1.5914   1.6900   1.7218   1.7955   1.8454   1.8521
     1.9485   2.0043   2.1099   2.1146   2.2476   2.2659   2.3199   2.3396
     2.4077   2.4737   7.2547   7.3166   7.3536   7.3896   7.4037   7.4598
     8.4563   8.6083   8.9997   9.1671   9.1756   9.3179   9.5357   9.7719
     9.8820  10.0876  10.1135  10.1915  10.2228  10.4363  10.5559  10.6613
    10.9848  11.1513

          k = 0.0478 0.0278 0.0425 (103164 PWs)   bands (ev):

   -56.2758 -56.2758 -56.2757 -56.2757 -56.2729 -56.2729 -56.2728 -56.2728
   -56.2581 -56.2581 -56.2580 -56.2580 -56.2529 -56.2529 -56.2529 -56.2528
   -56.2505 -56.2505 -56.2505 -56.2505 -56.2369 -56.2369 -56.2369 -56.2369
   -56.2248 -56.2248 -56.2248 -56.2248 -56.2212 -56.2212 -56.2211 -56.2211
   -56.2101 -56.2101 -56.2100 -56.2100 -56.2072 -56.2071 -56.2071 -56.2071
   -56.1919 -56.1919 -56.1919 -56.1919 -56.1910 -56.1910 -56.1909 -56.1909
   -56.1900 -56.1900 -56.1899 -56.1899 -56.1839 -56.1839 -56.1838 -56.1838
   -56.1809 -56.1809 -56.1809 -56.1809 -46.9321 -46.9320 -42.0680 -42.0680
   -41.7993 -41.7993 -41.7708 -41.7708 -20.7600 -20.7599 -20.7548 -20.7547
   -20.7545 -20.7544 -10.5661 -10.5127 -10.3723 -10.3426 -10.3021 -10.3005
   -10.2694 -10.2489 -10.2191 -10.2167 -10.1564 -10.1490   0.0348   0.0412
     0.2921   0.2952   0.4261   0.4288   0.6050   0.6134   0.6589   0.7397
     0.8240   0.8351   1.0113   1.0357   1.0976   1.1547   1.3361   1.4153
     1.4776   1.5651   1.5966   1.6644   1.6843   1.7603   1.8349   1.8531
     1.9227   1.9974   2.0744   2.1494   2.1867   2.2519   2.2620   2.2915
     2.3950   2.3980   7.2281   7.3122   7.3147   7.3967   7.4374   7.4780
     8.5864   8.6030   9.0892   9.0974   9.3354   9.5591   9.6355   9.8196
     9.9041   9.9659  10.0794  10.2250  10.3062  10.3076  10.5707  10.7798
    11.0558  11.2048

          k = 0.0478 0.0278 0.0680 (103182 PWs)   bands (ev):

   -56.2758 -56.2758 -56.2757 -56.2757 -56.2729 -56.2729 -56.2728 -56.2728
   -56.2581 -56.2581 -56.2580 -56.2580 -56.2530 -56.2529 -56.2529 -56.2528
   -56.2505 -56.2505 -56.2505 -56.2505 -56.2369 -56.2369 -56.2369 -56.2369
   -56.2248 -56.2248 -56.2248 -56.2248 -56.2212 -56.2212 -56.2211 -56.2211
   -56.2101 -56.2101 -56.2100 -56.2100 -56.2072 -56.2071 -56.2071 -56.2071
   -56.1919 -56.1919 -56.1919 -56.1919 -56.1910 -56.1910 -56.1909 -56.1909
   -56.1900 -56.1900 -56.1899 -56.1899 -56.1839 -56.1839 -56.1838 -56.1838
   -56.1809 -56.1809 -56.1809 -56.1808 -46.9321 -46.9320 -42.0680 -42.0680
   -41.7993 -41.7993 -41.7708 -41.7708 -20.7600 -20.7600 -20.7548 -20.7547
   -20.7545 -20.7544 -10.5196 -10.4731 -10.3763 -10.3616 -10.3241 -10.3182
   -10.2639 -10.2527 -10.2385 -10.2111 -10.1621 -10.1603  -0.0690  -0.0470
     0.2870   0.3428   0.3880   0.4266   0.5572   0.6090   0.7323   0.7482
     0.8107   0.8970   0.9287   0.9582   1.0964   1.2733   1.4599   1.4812
     1.5009   1.6288   1.6610   1.7299   1.7330   1.7653   1.8537   1.8920
     1.9661   2.0063   2.0351   2.0398   2.1407   2.2230   2.2776   2.3047
     2.3649   2.4127   7.1311   7.2362   7.2752   7.3789   7.4103   7.4439
     8.6851   8.7591   8.9930   9.0112   9.3804   9.4267   9.5041   9.5085
     9.8317   9.8777   9.9525  10.1549  10.3647  10.3655  10.5895  10.8014
    11.0438  11.1904

          k = 0.0478 0.0278-0.0595 (103192 PWs)   bands (ev):

   -56.2758 -56.2758 -56.2757 -56.2757 -56.2729 -56.2729 -56.2728 -56.2728
   -56.2581 -56.2581 -56.2580 -56.2580 -56.2530 -56.2529 -56.2529 -56.2528
   -56.2505 -56.2505 -56.2505 -56.2505 -56.2369 -56.2369 -56.2369 -56.2369
   -56.2248 -56.2248 -56.2248 -56.2248 -56.2212 -56.2212 -56.2211 -56.2211
   -56.2101 -56.2101 -56.2100 -56.2100 -56.2072 -56.2071 -56.2071 -56.2071
   -56.1919 -56.1919 -56.1919 -56.1919 -56.1910 -56.1910 -56.1909 -56.1909
   -56.1900 -56.1900 -56.1899 -56.1899 -56.1839 -56.1839 -56.1838 -56.1838
   -56.1809 -56.1809 -56.1809 -56.1808 -46.9321 -46.9320 -42.0680 -42.0680
   -41.7993 -41.7993 -41.7708 -41.7708 -20.7601 -20.7600 -20.7548 -20.7547
   -20.7545 -20.7544 -10.5237 -10.4664 -10.3710 -10.3584 -10.3239 -10.3203
   -10.2594 -10.2454 -10.2359 -10.2019 -10.1786 -10.1754  -0.1422  -0.1288
     0.2677   0.2770   0.3376   0.3550   0.4876   0.4879   0.6203   0.6733
     0.8440   0.9517   1.1111   1.1217   1.1918   1.2789   1.4856   1.4953
     1.5493   1.6480   1.6782   1.7044   1.7555   1.7876   1.8787   1.9356
     1.9768   2.0252   2.1230   2.1356   2.1780   2.2370   2.3249   2.3320
     2.4043   2.4069   7.0762   7.1504   7.2789   7.3259   7.3514   7.3797
     8.7021   8.7272   8.9169   8.9732   9.1697   9.2049   9.3485   9.3599
     9.5896   9.7200  10.0825  10.1646  10.3842  10.4673  10.5667  10.5885
    10.9185  11.0519

          k = 0.0478 0.0278-0.0340 (103176 PWs)   bands (ev):

   -56.2758 -56.2758 -56.2757 -56.2757 -56.2729 -56.2729 -56.2728 -56.2728
   -56.2581 -56.2581 -56.2580 -56.2580 -56.2530 -56.2529 -56.2529 -56.2528
   -56.2505 -56.2505 -56.2505 -56.2505 -56.2369 -56.2369 -56.2369 -56.2369
   -56.2248 -56.2248 -56.2248 -56.2248 -56.2212 -56.2212 -56.2212 -56.2211
   -56.2101 -56.2101 -56.2100 -56.2100 -56.2072 -56.2071 -56.2071 -56.2071
   -56.1919 -56.1919 -56.1919 -56.1919 -56.1910 -56.1910 -56.1909 -56.1909
   -56.1900 -56.1900 -56.1899 -56.1899 -56.1839 -56.1839 -56.1838 -56.1838
   -56.1809 -56.1809 -56.1809 -56.1808 -46.9321 -46.9320 -42.0680 -42.0680
   -41.7993 -41.7993 -41.7708 -41.7708 -20.7600 -20.7600 -20.7548 -20.7547
   -20.7545 -20.7544 -10.5714 -10.5055 -10.3459 -10.3331 -10.3176 -10.3009
   -10.2674 -10.2294 -10.2135 -10.2116 -10.1796 -10.1777  -0.1679  -0.1087
     0.2271   0.2657   0.3281   0.3341   0.4264   0.4447   0.5009   0.5021
     0.9237   1.0234   1.1212   1.1458   1.3112   1.4198   1.4429   1.4804
     1.5685   1.6030   1.6259   1.6752   1.7454   1.7562   1.9429   1.9506
     1.9937   2.0352   2.0865   2.1120   2.3154   2.3416   2.3591   2.3866
     2.4002   2.4448   7.1288   7.1538   7.2370   7.3338   7.3422   7.3593
     8.5232   8.7420   8.7966   8.9690   9.1317   9.1674   9.3559   9.4612
     9.5512   9.6095  10.0682  10.1705  10.2462  10.2934  10.3863  10.4200
    10.8585  11.1293

          k = 0.0478 0.0278-0.0085 (103167 PWs)   bands (ev):

   -56.2758 -56.2758 -56.2757 -56.2757 -56.2729 -56.2729 -56.2728 -56.2728
   -56.2581 -56.2581 -56.2580 -56.2580 -56.2530 -56.2529 -56.2529 -56.2528
   -56.2505 -56.2505 -56.2505 -56.2505 -56.2369 -56.2369 -56.2369 -56.2369
   -56.2248 -56.2248 -56.2248 -56.2248 -56.2212 -56.2212 -56.2211 -56.2211
   -56.2101 -56.2101 -56.2100 -56.2100 -56.2072 -56.2071 -56.2071 -56.2071
   -56.1919 -56.1919 -56.1919 -56.1919 -56.1910 -56.1910 -56.1909 -56.1909
   -56.1900 -56.1900 -56.1899 -56.1899 -56.1839 -56.1839 -56.1838 -56.1838
   -56.1809 -56.1809 -56.1809 -56.1808 -46.9321 -46.9320 -42.0680 -42.0680
   -41.7993 -41.7993 -41.7708 -41.7708 -20.7600 -20.7599 -20.7548 -20.7547
   -20.7545 -20.7544 -10.6037 -10.5361 -10.3403 -10.3235 -10.3207 -10.2944
   -10.2605 -10.2263 -10.2080 -10.2005 -10.1690 -10.1651  -0.1234  -0.0283
     0.2232   0.2684   0.3452   0.3786   0.4292   0.4618   0.5172   0.5223
     0.9004   1.0050   1.0796   1.0954   1.2133   1.3792   1.3798   1.4655
     1.5651   1.5870   1.6127   1.6632   1.7303   1.7659   1.9115   1.9176
     2.0155   2.0273   2.0914   2.1239   2.2456   2.2827   2.3580   2.3996
     2.4435   2.4933   7.2105   7.2435   7.2859   7.3613   7.3828   7.3983
     8.4155   8.7300   8.9289   8.9490   9.0483   9.1509   9.6006   9.6751
     9.7331   9.8703   9.9210  10.0847  10.1299  10.3271  10.3516  10.4874
    10.9121  11.0536

          k =-0.0718 0.0000-0.0255 (103168 PWs)   bands (ev):

   -56.2758 -56.2758 -56.2757 -56.2757 -56.2729 -56.2729 -56.2728 -56.2728
   -56.2581 -56.2581 -56.2580 -56.2580 -56.2529 -56.2529 -56.2529 -56.2528
   -56.2505 -56.2505 -56.2505 -56.2505 -56.2369 -56.2369 -56.2369 -56.2369
   -56.2248 -56.2248 -56.2248 -56.2248 -56.2212 -56.2212 -56.2211 -56.2211
   -56.2101 -56.2101 -56.2100 -56.2100 -56.2072 -56.2071 -56.2071 -56.2071
   -56.1919 -56.1919 -56.1919 -56.1919 -56.1910 -56.1910 -56.1909 -56.1909
   -56.1900 -56.1900 -56.1899 -56.1899 -56.1839 -56.1839 -56.1838 -56.1838
   -56.1809 -56.1809 -56.1809 -56.1809 -46.9321 -46.9320 -42.0680 -42.0680
   -41.7993 -41.7993 -41.7708 -41.7708 -20.7600 -20.7599 -20.7548 -20.7547
   -20.7545 -20.7544 -10.5348 -10.5348 -10.3476 -10.3476 -10.3236 -10.3236
   -10.2699 -10.2698 -10.1916 -10.1916 -10.1605 -10.1605   0.0663   0.0663
     0.3785   0.3785   0.4253   0.4253   0.5085   0.5085   0.7340   0.7341
     0.8375   0.8375   1.0044   1.0044   1.1202   1.1202   1.1471   1.1472
     1.5898   1.5898   1.6748   1.6748   1.7172   1.7172   1.8370   1.8370
     2.0447   2.0447   2.0616   2.0616   2.1978   2.1978   2.3645   2.3645
     2.4210   2.4210   7.2736   7.2737   7.3124   7.3124   7.4276   7.4277
     8.7477   8.7477   8.9071   8.9071   9.2883   9.2884   9.8001   9.8001
    10.0612  10.0612  10.1565  10.1565  10.3743  10.3743  10.7162  10.7162
    11.1702  11.1703

          k =-0.0718 0.0000-0.0000 (103209 PWs)   bands (ev):

   -56.2758 -56.2758 -56.2757 -56.2757 -56.2729 -56.2729 -56.2728 -56.2728
   -56.2581 -56.2581 -56.2580 -56.2580 -56.2530 -56.2529 -56.2529 -56.2528
   -56.2505 -56.2505 -56.2505 -56.2505 -56.2369 -56.2369 -56.2369 -56.2369
   -56.2248 -56.2248 -56.2248 -56.2248 -56.2212 -56.2212 -56.2211 -56.2211
   -56.2101 -56.2101 -56.2100 -56.2100 -56.2072 -56.2071 -56.2071 -56.2071
   -56.1919 -56.1919 -56.1919 -56.1919 -56.1910 -56.1910 -56.1909 -56.1909
   -56.1900 -56.1900 -56.1899 -56.1899 -56.1839 -56.1839 -56.1838 -56.1838
   -56.1809 -56.1809 -56.1809 -56.1808 -46.9321 -46.9320 -42.0680 -42.0680
   -41.7993 -41.7993 -41.7708 -41.7708 -20.7600 -20.7599 -20.7548 -20.7547
   -20.7545 -20.7544 -10.5431 -10.5010 -10.3521 -10.3382 -10.3291 -10.3052
   -10.2942 -10.2739 -10.2080 -10.1864 -10.1675 -10.1588  -0.0528   0.1314
     0.2953   0.3333   0.4004   0.4535   0.4694   0.5617   0.5890   0.6207
     0.7401   0.9039   0.9378   1.1251   1.1558   1.2311   1.2728   1.3198
     1.5044   1.6926   1.7036   1.7174   1.7387   1.7521   1.8057   1.9372
     2.0132   2.0398   2.0759   2.1201   2.1281   2.2284   2.3139   2.3438
     2.4037   2.4377   7.2006   7.2586   7.2796   7.3002   7.4021   7.4121
     8.6681   8.8463   8.9063   9.0441   9.2780   9.4070   9.4570   9.6248
     9.9048   9.9103   9.9407  10.0787  10.2814  10.2917  10.4503  10.4746
    11.1019  11.1510

          k =-0.0718 0.0000 0.0255 (103140 PWs)   bands (ev):

   -56.2758 -56.2758 -56.2757 -56.2757 -56.2729 -56.2729 -56.2728 -56.2728
   -56.2581 -56.2581 -56.2580 -56.2580 -56.2530 -56.2529 -56.2529 -56.2528
   -56.2505 -56.2505 -56.2505 -56.2505 -56.2369 -56.2369 -56.2369 -56.2369
   -56.2248 -56.2248 -56.2248 -56.2248 -56.2212 -56.2212 -56.2211 -56.2211
   -56.2101 -56.2101 -56.2100 -56.2100 -56.2072 -56.2071 -56.2071 -56.2071
   -56.1919 -56.1919 -56.1919 -56.1919 -56.1910 -56.1910 -56.1909 -56.1909
   -56.1900 -56.1900 -56.1899 -56.1899 -56.1839 -56.1839 -56.1838 -56.1838
   -56.1809 -56.1809 -56.1809 -56.1808 -46.9321 -46.9320 -42.0680 -42.0680
   -41.7993 -41.7993 -41.7708 -41.7708 -20.7600 -20.7600 -20.7548 -20.7547
   -20.7545 -20.7545 -10.5216 -10.4642 -10.3652 -10.3308 -10.3300 -10.3063
   -10.3005 -10.2712 -10.2342 -10.1981 -10.1738 -10.1646  -0.1114   0.0323
     0.2005   0.2547   0.3445   0.3729   0.4201   0.4696   0.5560   0.6557
     0.6967   0.9259   1.0629   1.1201   1.2822   1.3306   1.4531   1.5580
     1.5701   1.6562   1.6766   1.7262   1.7861   1.7945   1.8677   1.9731
     2.0031   2.0432   2.0832   2.1349   2.1638   2.2492   2.2528   2.3453
     2.3859   2.4977   7.1306   7.2038   7.2222   7.2527   7.3260   7.3453
     8.6116   8.8622   8.9535   9.0343   9.1264   9.2327   9.4247   9.4838
     9.6255   9.7221   9.8129   9.8973   9.9717  10.1075  10.2840  10.4406
    11.0252  11.2193

          k =-0.0718 0.0000-0.1020 (103172 PWs)   bands (ev):

   -56.2758 -56.2758 -56.2757 -56.2757 -56.2729 -56.2729 -56.2728 -56.2728
   -56.2581 -56.2581 -56.2580 -56.2580 -56.2530 -56.2529 -56.2529 -56.2528
   -56.2505 -56.2505 -56.2505 -56.2505 -56.2369 -56.2369 -56.2369 -56.2369
   -56.2248 -56.2248 -56.2248 -56.2248 -56.2212 -56.2212 -56.2212 -56.2211
   -56.2101 -56.2101 -56.2100 -56.2100 -56.2072 -56.2071 -56.2071 -56.2071
   -56.1919 -56.1919 -56.1919 -56.1919 -56.1910 -56.1910 -56.1909 -56.1909
   -56.1900 -56.1900 -56.1899 -56.1899 -56.1839 -56.1839 -56.1838 -56.1838
   -56.1809 -56.1809 -56.1809 -56.1808 -46.9321 -46.9320 -42.0680 -42.0680
   -41.7993 -41.7993 -41.7708 -41.7708 -20.7600 -20.7600 -20.7548 -20.7548
   -20.7545 -20.7545 -10.4803 -10.4803 -10.3526 -10.3526 -10.3223 -10.3223
   -10.2764 -10.2764 -10.2271 -10.2271 -10.1723 -10.1723  -0.0784  -0.0784
     0.1875   0.1875   0.3233   0.3233   0.3897   0.3898   0.6077   0.6077
     0.8610   0.8610   1.1777   1.1777   1.2973   1.2973   1.5676   1.5676
     1.6414   1.6414   1.6965   1.6965   1.8207   1.8207   1.8454   1.8454
     2.0435   2.0435   2.0947   2.0947   2.2797   2.2797   2.3079   2.3080
     2.4563   2.4563   7.1506   7.1507   7.2200   7.2201   7.2692   7.2693
     8.6307   8.6307   9.0230   9.0230   9.1835   9.1835   9.3156   9.3156
     9.5678   9.5678   9.7580   9.7580  10.0922  10.0922  10.3977  10.3977
    11.0402  11.0404

          k =-0.0718 0.0278-0.0255 (103184 PWs)   bands (ev):

   -56.2758 -56.2758 -56.2757 -56.2757 -56.2729 -56.2729 -56.2728 -56.2728
   -56.2581 -56.2581 -56.2580 -56.2580 -56.2529 -56.2529 -56.2529 -56.2528
   -56.2505 -56.2505 -56.2505 -56.2505 -56.2369 -56.2369 -56.2369 -56.2369
   -56.2248 -56.2248 -56.2248 -56.2248 -56.2212 -56.2212 -56.2211 -56.2211
   -56.2101 -56.2101 -56.2100 -56.2100 -56.2072 -56.2071 -56.2071 -56.2071
   -56.1919 -56.1919 -56.1919 -56.1919 -56.1910 -56.1910 -56.1909 -56.1909
   -56.1900 -56.1900 -56.1899 -56.1899 -56.1839 -56.1839 -56.1838 -56.1838
   -56.1809 -56.1809 -56.1809 -56.1809 -46.9321 -46.9320 -42.0680 -42.0680
   -41.7993 -41.7993 -41.7708 -41.7708 -20.7600 -20.7599 -20.7548 -20.7547
   -20.7545 -20.7544 -10.5290 -10.5289 -10.3833 -10.3833 -10.2912 -10.2911
   -10.2616 -10.2616 -10.2069 -10.2069 -10.1561 -10.1561   0.0299   0.0299
     0.2740   0.2740   0.4687   0.4688   0.6240   0.6240   0.6781   0.6781
     0.8894   0.8894   0.9838   0.9838   1.1913   1.1913   1.2555   1.2555
     1.4828   1.4828   1.6042   1.6042   1.7940   1.7940   1.8654   1.8654
     1.9540   1.9540   2.0538   2.0538   2.2303   2.2303   2.2904   2.2904
     2.4362   2.4362   7.2320   7.2320   7.3521   7.3521   7.4654   7.4655
     8.6226   8.6226   9.2752   9.2752   9.3300   9.3300   9.7721   9.7721
     9.8819   9.8819  10.1139  10.1139  10.4878  10.4878  10.7790  10.7790
    11.0138  11.0138

          k =-0.0718 0.0278-0.0000 (103216 PWs)   bands (ev):

   -56.2758 -56.2758 -56.2757 -56.2757 -56.2729 -56.2729 -56.2728 -56.2728
   -56.2581 -56.2581 -56.2580 -56.2580 -56.2530 -56.2529 -56.2529 -56.2528
   -56.2505 -56.2505 -56.2505 -56.2505 -56.2369 -56.2369 -56.2369 -56.2369
   -56.2248 -56.2248 -56.2248 -56.2248 -56.2212 -56.2212 -56.2211 -56.2211
   -56.2101 -56.2101 -56.2100 -56.2100 -56.2072 -56.2071 -56.2071 -56.2071
   -56.1919 -56.1919 -56.1919 -56.1919 -56.1910 -56.1910 -56.1909 -56.1909
   -56.1900 -56.1900 -56.1899 -56.1899 -56.1839 -56.1839 -56.1838 -56.1838
   -56.1809 -56.1809 -56.1809 -56.1808 -46.9321 -46.9320 -42.0680 -42.0680
   -41.7993 -41.7993 -41.7708 -41.7708 -20.7600 -20.7599 -20.7548 -20.7547
   -20.7545 -20.7544 -10.5291 -10.5061 -10.3817 -10.3708 -10.3062 -10.2930
   -10.2703 -10.2596 -10.2167 -10.2027 -10.1625 -10.1587  -0.0663   0.0041
     0.2763   0.3088   0.4103   0.4464   0.5532   0.5736   0.5955   0.6785
     0.8378   0.9496   0.9650   1.1096   1.1949   1.2154   1.3492   1.3604
     1.4729   1.5730   1.6345   1.6438   1.7720   1.7818   1.8845   1.8951
     2.0046   2.0118   2.0884   2.0896   2.1636   2.2052   2.2236   2.3064
     2.4287   2.4577   7.1774   7.2092   7.3182   7.3612   7.4240   7.4440
     8.6798   8.7123   8.9868   9.1139   9.3919   9.4034   9.5482   9.6549
     9.7474   9.7770  10.0006  10.2555  10.4183  10.4205  10.7118  10.7177
    10.9327  10.9559

          k =-0.0718 0.0278 0.0255 (103162 PWs)   bands (ev):

   -56.2758 -56.2758 -56.2757 -56.2757 -56.2729 -56.2729 -56.2728 -56.2728
   -56.2581 -56.2581 -56.2580 -56.2580 -56.2530 -56.2529 -56.2529 -56.2528
   -56.2505 -56.2505 -56.2505 -56.2505 -56.2369 -56.2369 -56.2369 -56.2369
   -56.2248 -56.2248 -56.2248 -56.2248 -56.2212 -56.2212 -56.2211 -56.2211
   -56.2101 -56.2101 -56.2100 -56.2100 -56.2072 -56.2071 -56.2071 -56.2071
   -56.1919 -56.1919 -56.1919 -56.1919 -56.1910 -56.1910 -56.1909 -56.1909
   -56.1900 -56.1900 -56.1899 -56.1899 -56.1839 -56.1839 -56.1838 -56.1838
   -56.1809 -56.1809 -56.1809 -56.1808 -46.9321 -46.9320 -42.0680 -42.0680
   -41.7993 -41.7993 -41.7708 -41.7708 -20.7600 -20.7600 -20.7548 -20.7548
   -20.7545 -20.7544 -10.5048 -10.4731 -10.3789 -10.3594 -10.3299 -10.3160
   -10.2681 -10.2460 -10.2332 -10.2038 -10.1772 -10.1700  -0.1620  -0.1102
     0.2571   0.2873   0.3549   0.3734   0.4533   0.4997   0.6204   0.6757
     0.8515   0.9647   1.0352   1.1277   1.2363   1.2467   1.4601   1.5093
     1.5872   1.6342   1.6700   1.6854   1.7475   1.7623   1.9120   1.9632
     2.0151   2.0194   2.1343   2.1512   2.1830   2.2001   2.2779   2.3536
     2.3873   2.4318   7.0804   7.1225   7.3024   7.3161   7.3660   7.3718
     8.7052   8.8100   8.8913   8.9211   9.1081   9.1186   9.3717   9.3752
     9.6597   9.7701  10.0952  10.1278  10.3789  10.4574  10.6125  10.6291
    10.9181  11.0030

          k =-0.0718 0.0278-0.1020 (103172 PWs)   bands (ev):

   -56.2758 -56.2758 -56.2757 -56.2757 -56.2729 -56.2729 -56.2728 -56.2728
   -56.2581 -56.2581 -56.2580 -56.2580 -56.2530 -56.2529 -56.2529 -56.2528
   -56.2505 -56.2505 -56.2505 -56.2505 -56.2369 -56.2369 -56.2369 -56.2369
   -56.2248 -56.2248 -56.2248 -56.2248 -56.2212 -56.2212 -56.2212 -56.2211
   -56.2101 -56.2101 -56.2100 -56.2100 -56.2072 -56.2071 -56.2071 -56.2071
   -56.1919 -56.1919 -56.1919 -56.1919 -56.1910 -56.1910 -56.1909 -56.1909
   -56.1900 -56.1900 -56.1899 -56.1899 -56.1839 -56.1839 -56.1838 -56.1838
   -56.1809 -56.1809 -56.1809 -56.1808 -46.9321 -46.9320 -42.0680 -42.0680
   -41.7993 -41.7993 -41.7708 -41.7708 -20.7600 -20.7600 -20.7548 -20.7548
   -20.7545 -20.7544 -10.4701 -10.4700 -10.3787 -10.3787 -10.3256 -10.3255
   -10.2553 -10.2553 -10.2195 -10.2195 -10.1819 -10.1819  -0.1818  -0.1818
     0.2416   0.2416   0.3274   0.3274   0.4636   0.4637   0.6651   0.6651
     0.9195   0.9195   1.1426   1.1426   1.2272   1.2272   1.5266   1.5267
     1.5990   1.5990   1.6907   1.6907   1.7309   1.7309   1.9487   1.9487
     2.1045   2.1045   2.1245   2.1245   2.2721   2.2721   2.3054   2.3054
     2.3955   2.3955   7.0504   7.0505   7.2900   7.2901   7.3344   7.3344
     8.6810   8.6810   8.8068   8.8068   9.1694   9.1694   9.2706   9.2706
     9.6711   9.6711  10.0966  10.0966  10.4070  10.4070  10.6389  10.6389
    10.9287  10.9287

     the Fermi energy is     4.8500 ev

!    total energy              =   -6740.56289958 Ry

     total all-electron energy =   -114993.578857 Ry
     estimated scf accuracy    <          8.7E-09 Ry
     smearing contrib. (-TS)   =      -0.00000000 Ry
     internal energy E=F+TS    =   -6740.56289958 Ry

     The total energy is F=E-TS. E is the sum of the following terms:
     one-electron contribution =   -3515.78227980 Ry
     hartree contribution      =    1687.89663747 Ry
     xc contribution           =    -503.21655199 Ry
     ewald contribution        =   -1690.68325647 Ry
     one-center paw contrib.   =   -2718.77744880 Ry

     convergence has been achieved in   9 iterations

     Forces acting on atoms (cartesian axes, Ry/au):

     atom    1 type  1   force =     0.00000000   -0.00206524    0.00000000
     atom    2 type  1   force =     0.00000000    0.00042123    0.00000000
     atom    3 type  1   force =     0.00000000   -0.00039883    0.00000000
     atom    4 type  1   force =     0.00000000   -0.00206414    0.00000000
     atom    5 type  1   force =     0.00000000    0.00042661    0.00000000
     atom    6 type  1   force =     0.00000000   -0.00040165    0.00000000
     atom    7 type  2   force =     0.00000000    0.00081520    0.00000000
     atom    8 type  2   force =     0.00000000    0.00082031    0.00000000
     atom    9 type  3   force =     0.00087910    0.00151093    0.00389143
     atom   10 type  3   force =     0.00318985   -0.00240758    0.00127074
     atom   11 type  3   force =    -0.00318985   -0.00240758   -0.00127074
     atom   12 type  3   force =    -0.00087910    0.00151093   -0.00389143
     atom   13 type  3   force =    -0.00318690    0.00147643    0.00333623
     atom   14 type  3   force =     0.00318690    0.00147643   -0.00333623
     atom   15 type  3   force =     0.00088027    0.00148225    0.00393641
     atom   16 type  3   force =     0.00316622   -0.00236196    0.00125847
     atom   17 type  3   force =    -0.00316622   -0.00236196   -0.00125847
     atom   18 type  3   force =    -0.00088027    0.00148225   -0.00393641
     atom   19 type  3   force =    -0.00313243    0.00152320    0.00334452
     atom   20 type  3   force =     0.00313243    0.00152320   -0.00334452

     Total force =     0.015716     Total SCF correction =     0.000353


     Computing stress (Cartesian axis) and pressure

          total   stress  (Ry/bohr**3)                   (kbar)     P=       -4.36
  -0.00003277   0.00000000   0.00000130           -4.82        0.00        0.19
   0.00000000  -0.00003439   0.00000000            0.00       -5.06        0.00
   0.00000130   0.00000000  -0.00002180            0.19        0.00       -3.21


     Writing output data file ./pwscf.save/
 
     init_run     :     17.98s CPU     18.49s WALL (       1 calls)
     electrons    :    467.48s CPU    480.22s WALL (       1 calls)
     forces       :      6.06s CPU      6.14s WALL (       1 calls)
     stress       :     46.46s CPU     46.73s WALL (       1 calls)

     Called by init_run:
     wfcinit      :     14.69s CPU     15.10s WALL (       1 calls)
     potinit      :      1.13s CPU      1.14s WALL (       1 calls)
     hinit0       :      1.46s CPU      1.48s WALL (       1 calls)

     Called by electrons:
     c_bands      :    395.10s CPU    405.20s WALL (      10 calls)
     sum_band     :     67.94s CPU     70.04s WALL (      10 calls)
     v_of_rho     :      1.10s CPU      1.12s WALL (      10 calls)
     newd         :      2.34s CPU      2.69s WALL (      10 calls)
     PAW_pot      :      0.96s CPU      0.97s WALL (      10 calls)
     mix_rho      :      0.21s CPU      0.22s WALL (      10 calls)

     Called by c_bands:
     init_us_2    :      3.80s CPU      3.86s WALL (     460 calls)
     cegterg      :    366.01s CPU    375.76s WALL (     200 calls)

     Called by *egterg:
     cdiaghg      :     35.47s CPU     35.94s WALL (    1087 calls)
     h_psi        :    252.72s CPU    259.49s WALL (    1127 calls)
     s_psi        :     18.07s CPU     18.23s WALL (    1127 calls)
     g_psi        :      0.86s CPU      0.87s WALL (     907 calls)

     Called by h_psi:
     h_psi:calbec :     18.60s CPU     18.81s WALL (    1127 calls)
     vloc_psi     :    214.22s CPU    219.29s WALL (    1127 calls)
     add_vuspsi   :     18.13s CPU     18.30s WALL (    1127 calls)

     General routines
     calbec       :     29.97s CPU     30.29s WALL (    1427 calls)
     fft          :      0.99s CPU      1.01s WALL (     154 calls)
     ffts         :      0.08s CPU      0.08s WALL (      20 calls)
     fftw         :    221.82s CPU    227.15s WALL (  173770 calls)
     interpolate  :      0.12s CPU      0.12s WALL (      10 calls)
 
     Parallel routines
     fft_scatt_xy :     39.55s CPU     40.52s WALL (  173944 calls)
     fft_scatt_yz :     57.49s CPU     58.84s WALL (  173944 calls)
 
     PWSCF        :   9m 2.45s CPU   9m21.12s WALL

 
   This run was terminated on:  17:43:27   2Aug2021            

=------------------------------------------------------------------------------=
   JOB DONE.
=------------------------------------------------------------------------------=
