
     Program PWSCF v.6.7MaX starts on  2Aug2021 at 17:22: 0 

     This program is part of the open-source Quantum ESPRESSO suite
     for quantum simulation of materials; please cite
         "P. Giannozzi et al., J. Phys.:Condens. Matter 21 395502 (2009);
         "P. Giannozzi et al., J. Phys.:Condens. Matter 29 465901 (2017);
          URL http://www.quantum-espresso.org", 
     in publications or presentations arising from this work. More details at
     http://www.quantum-espresso.org/quote

     Parallel version (MPI), running on    48 processors

     MPI processes distributed on     2 nodes
     K-points division:     npool     =       2
     R & G space division:  proc/nbgrp/npool/nimage =      24
     Waiting for input...
     Reading input from standard input
Warning: card &CELL ignored
Warning: card CELL_DYNAMICS             = 'BFGS', ignored
Warning: card PRESS                     = '0.0', ignored
Warning: card PRESS_CONV_THR            = '0.5', ignored
Warning: card / ignored
     Message from routine read_cards :
     DEPRECATED: no units specified in CELL_PARAMETERS card

     Current dimensions of program PWSCF are:
     Max number of different atomic species (ntypx) = 10
     Max number of k-points (npk) =  40000
     Max angular momentum in pseudopotentials (lmaxx) =  3
     Message from routine cell_base_init:
     DEPRECATED: use true lattice parameter, not A to a.u. conversion factor
 end of file reached, closing tag not found
     file Er.pbe-spdn-kjpaw_psl.1.0.0.UPF: wavefunction(s)  6S 5D renormalized
     file Br.pbe-dn-kjpaw_psl.1.0.0.UPF: wavefunction(s)  4S 4P 3D renormalized

     Subspace diagonalization in iterative solution of the eigenvalue problem:
     a serial algorithm will be used

     Found symmetry operation: I + ( -0.5000 -0.5000  0.0000)
     This is a supercell, fractional translations are disabled
     Message from routine setup:
     using ibrav=0 with symmetry is DISCOURAGED, use correct ibrav instead
 
     Parallelization info
     --------------------
     sticks:   dense  smooth     PW     G-vecs:    dense   smooth      PW
     Min         594     474    128                38139    27283    3835
     Max         595     475    129                38141    27287    3839
     Sum       14271   11389   3073               915355   654837   92095
 


     bravais-lattice index     =            0
     lattice parameter (alat)  =       1.8897  a.u.
     unit-cell volume          =    3688.3023 (a.u.)^3
     number of atoms/cell      =           20
     number of atomic types    =            3
     number of electrons       =       244.00
     number of Kohn-Sham states=          146
     kinetic-energy cutoff     =     120.0000  Ry
     charge density cutoff     =     600.0000  Ry
     scf convergence threshold =      1.0E-08
     mixing beta               =       0.4000
     number of iterations used =            8  plain     mixing
     Exchange-correlation= SLA  PW   PBX  PBC
                           (   1   4   3   4   0   0   0)

     celldm(1)=   1.889726  celldm(2)=   0.000000  celldm(3)=   0.000000
     celldm(4)=   0.000000  celldm(5)=   0.000000  celldm(6)=   0.000000

     crystal axes: (cart. coord. in units of alat)
               a(1) = (   6.967356   0.000000   0.000000 )  
               a(2) = (   0.000000  11.998880   0.000000 )  
               a(3) = (  -2.324723   0.000000   6.537643 )  

     reciprocal axes: (cart. coord. in units 2 pi/alat)
               b(1) = (  0.143526  0.000000  0.051037 )  
               b(2) = (  0.000000  0.083341  0.000000 )  
               b(3) = (  0.000000  0.000000  0.152960 )  


     PseudoPot. # 1 for Li read from file:
     /central/groups/SeeGroup/qe_pseudopotentials/Li.pbe-s-kjpaw_psl.1.0.0.UPF
     MD5 check sum: cc502796ee09d8b62ac346ee26e59beb
     Pseudo is Projector augmented-wave, Zval =  3.0
     Generated using &quot;atomic&quot; code by A. Dal Corso  v.6.3
     Shape of augmentation charge: PSQ
     Using radial grid of 1017 points,  4 beta functions with: 
                l(1) =   0
                l(2) =   0
                l(3) =   1
                l(4) =   1
     Q(r) pseudized with 0 coefficients 


     PseudoPot. # 2 for Er read from file:
     /central/groups/SeeGroup/qe_pseudopotentials/Er.pbe-spdn-kjpaw_psl.1.0.0.UPF
     MD5 check sum: a923254af2aef992cff3e18bc73f2922
     Pseudo is Projector augmented-wave + core cor, Zval = 11.0
     Generated using &quot;atomic&quot; code by A. Dal Corso  v.6.2.2
     Shape of augmentation charge: PSQ
     Using radial grid of 1267 points,  6 beta functions with: 
                l(1) =   0
                l(2) =   0
                l(3) =   1
                l(4) =   1
                l(5) =   2
                l(6) =   2
     Q(r) pseudized with 0 coefficients 


     PseudoPot. # 3 for Br read from file:
     /central/groups/SeeGroup/qe_pseudopotentials/Br.pbe-dn-kjpaw_psl.1.0.0.UPF
     MD5 check sum: 4ca4ebabfd6065c7bb707b2ebe99e9b3
     Pseudo is Projector augmented-wave + core cor, Zval = 17.0
     Generated using &quot;atomic&quot; code by A. Dal Corso  v.6.3
     Shape of augmentation charge: PSQ
     Using radial grid of 1213 points,  6 beta functions with: 
                l(1) =   0
                l(2) =   0
                l(3) =   1
                l(4) =   1
                l(5) =   2
                l(6) =   2
     Q(r) pseudized with 0 coefficients 


     atomic species   valence    mass     pseudopotential
        Li             3.00     6.94100     Li( 1.00)
        Er            11.00   167.25900     Er( 1.00)
        Br            17.00    79.90400     Br( 1.00)

      2 Sym. Ops. (no inversion) found



   Cartesian axes

     site n.     atom                  positions (alat units)
         1           Li  tau(   1) = (   3.4836780   9.9564306   0.0000000  )
         2           Li  tau(   2) = (   3.4836780   2.0173957   0.0000000  )
         3           Li  tau(   3) = (   2.3213165   7.8846440   3.2688215  )
         4           Li  tau(   4) = (   0.0000000   3.9569906   0.0000000  )
         5           Li  tau(   5) = (   0.0000000   8.0168357   0.0000000  )
         6           Li  tau(   6) = (  -1.1623615   1.8852040   3.2688215  )
         7           Er  tau(   7) = (   3.4836780   5.9699947   0.0000000  )
         8           Er  tau(   8) = (   0.0000000  11.9694347   0.0000000  )
         9           Br  tau(   9) = (   3.4471523   9.9581465   5.0158758  )
        10           Br  tau(  10) = (   3.5847273   1.9854607   4.9258002  )
        11           Br  tau(  11) = (   1.0579057   1.9854607   1.6118428  )
        12           Br  tau(  12) = (   1.1954807   9.9581465   1.5217672  )
        13           Br  tau(  13) = (  -0.0150075   0.0698395   4.9769442  )
        14           Br  tau(  14) = (   4.6576405   0.0698395   1.5606988  )
        15           Br  tau(  15) = (  -0.0365257   3.9587065   5.0158758  )
        16           Br  tau(  16) = (   0.1010493   7.9849007   4.9258002  )
        17           Br  tau(  17) = (   4.5415837   7.9849007   1.6118428  )
        18           Br  tau(  18) = (   4.6791587   3.9587065   1.5217672  )
        19           Br  tau(  19) = (   3.4686705   6.0692795   4.9769442  )
        20           Br  tau(  20) = (   1.1739625   6.0692795   1.5606988  )

     number of k points=    20  Fermi-Dirac smearing, width (Ry)=  0.0070
                       cart. coord. in units 2pi/alat
        k(    1) = (   0.0000000   0.0000000   0.0000000), wk =   0.0625000
        k(    2) = (   0.0000000   0.0000000   0.0382401), wk =   0.1250000
        k(    3) = (   0.0000000   0.0000000  -0.0764802), wk =   0.0625000
        k(    4) = (   0.0000000  -0.0416706   0.0000000), wk =   0.0625000
        k(    5) = (   0.0000000  -0.0416706   0.0382401), wk =   0.1250000
        k(    6) = (   0.0000000  -0.0416706  -0.0764802), wk =   0.0625000
        k(    7) = (   0.0358816   0.0000000   0.0127592), wk =   0.1250000
        k(    8) = (   0.0358816   0.0000000   0.0509992), wk =   0.1250000
        k(    9) = (   0.0358816   0.0000000  -0.0637210), wk =   0.1250000
        k(   10) = (   0.0358816   0.0000000  -0.0254809), wk =   0.1250000
        k(   11) = (   0.0358816  -0.0416706   0.0127592), wk =   0.1250000
        k(   12) = (   0.0358816  -0.0416706   0.0509992), wk =   0.1250000
        k(   13) = (   0.0358816  -0.0416706  -0.0637210), wk =   0.1250000
        k(   14) = (   0.0358816  -0.0416706  -0.0254809), wk =   0.1250000
        k(   15) = (  -0.0717632   0.0000000  -0.0255183), wk =   0.0625000
        k(   16) = (  -0.0717632   0.0000000   0.0127218), wk =   0.1250000
        k(   17) = (  -0.0717632   0.0000000  -0.1019985), wk =   0.0625000
        k(   18) = (  -0.0717632  -0.0416706  -0.0255183), wk =   0.0625000
        k(   19) = (  -0.0717632  -0.0416706   0.0127218), wk =   0.1250000
        k(   20) = (  -0.0717632  -0.0416706  -0.1019985), wk =   0.0625000

     Dense  grid:   915355 G-vectors     FFT dimensions: ( 108, 180, 108)

     Smooth grid:   654837 G-vectors     FFT dimensions: (  96, 160,  96)

     Estimated max dynamical RAM per process >     194.23 MB

     Estimated total dynamical RAM >       9.10 GB

     Initial potential from superposition of free atoms

     starting charge  243.93496, renormalised to  244.00000
     Starting wfcs are  164 randomized atomic wfcs
     Checking if some PAW data can be deallocated... 

     total cpu time spent up to now is        8.7 secs

     Self-consistent Calculation

     iteration #  1     ecut=   120.00 Ry     beta= 0.40
     Davidson diagonalization with overlap
     ethr =  1.00E-02,  avg # of iterations =  5.5

     Threshold (ethr) on eigenvalues was too large:
     Diagonalizing with lowered threshold

     Davidson diagonalization with overlap
     ethr =  1.17E-04,  avg # of iterations =  9.3

     total cpu time spent up to now is       49.4 secs

     total energy              =   -6740.52983094 Ry
     estimated scf accuracy    <       0.28241556 Ry

     iteration #  2     ecut=   120.00 Ry     beta= 0.40
     Davidson diagonalization with overlap
     ethr =  1.16E-04,  avg # of iterations =  2.0

     total cpu time spent up to now is       64.9 secs

     total energy              =   -6740.55590016 Ry
     estimated scf accuracy    <       0.03881915 Ry

     iteration #  3     ecut=   120.00 Ry     beta= 0.40
     Davidson diagonalization with overlap
     ethr =  1.59E-05,  avg # of iterations =  6.9

     total cpu time spent up to now is       86.1 secs

     total energy              =   -6740.56096389 Ry
     estimated scf accuracy    <       0.00545076 Ry

     iteration #  4     ecut=   120.00 Ry     beta= 0.40
     Davidson diagonalization with overlap
     ethr =  2.23E-06,  avg # of iterations =  7.5

     total cpu time spent up to now is      106.6 secs

     total energy              =   -6740.56164530 Ry
     estimated scf accuracy    <       0.00077080 Ry

     iteration #  5     ecut=   120.00 Ry     beta= 0.40
     Davidson diagonalization with overlap
     ethr =  3.16E-07,  avg # of iterations =  2.0

     total cpu time spent up to now is      121.5 secs

     total energy              =   -6740.56177676 Ry
     estimated scf accuracy    <       0.00017923 Ry

     iteration #  6     ecut=   120.00 Ry     beta= 0.40
     Davidson diagonalization with overlap
     ethr =  7.35E-08,  avg # of iterations =  2.0

     total cpu time spent up to now is      136.5 secs

     total energy              =   -6740.56179406 Ry
     estimated scf accuracy    <       0.00003529 Ry

     iteration #  7     ecut=   120.00 Ry     beta= 0.40
     Davidson diagonalization with overlap
     ethr =  1.45E-08,  avg # of iterations =  2.0

     total cpu time spent up to now is      151.5 secs

     total energy              =   -6740.56179576 Ry
     estimated scf accuracy    <       0.00000097 Ry

     iteration #  8     ecut=   120.00 Ry     beta= 0.40
     Davidson diagonalization with overlap
     ethr =  3.97E-10,  avg # of iterations =  2.0

     total cpu time spent up to now is      168.5 secs

     total energy              =   -6740.56179587 Ry
     estimated scf accuracy    <       0.00000012 Ry

     iteration #  9     ecut=   120.00 Ry     beta= 0.40
     Davidson diagonalization with overlap
     ethr =  4.92E-11,  avg # of iterations =  2.1

     total cpu time spent up to now is      184.0 secs

     End of self-consistent calculation

          k = 0.0000 0.0000 0.0000 ( 81869 PWs)   bands (ev):

   -56.2765 -56.2765 -56.2765 -56.2764 -56.2736 -56.2736 -56.2735 -56.2735
   -56.2588 -56.2588 -56.2587 -56.2587 -56.2537 -56.2536 -56.2536 -56.2536
   -56.2512 -56.2512 -56.2512 -56.2512 -56.2377 -56.2376 -56.2376 -56.2376
   -56.2256 -56.2255 -56.2255 -56.2255 -56.2219 -56.2219 -56.2219 -56.2218
   -56.2108 -56.2108 -56.2108 -56.2107 -56.2079 -56.2079 -56.2078 -56.2078
   -56.1927 -56.1927 -56.1926 -56.1926 -56.1917 -56.1917 -56.1917 -56.1917
   -56.1907 -56.1907 -56.1907 -56.1906 -56.1846 -56.1846 -56.1846 -56.1845
   -56.1816 -56.1816 -56.1816 -56.1816 -46.9321 -46.9320 -42.0680 -42.0680
   -41.7994 -41.7993 -41.7709 -41.7709 -20.7600 -20.7599 -20.7546 -20.7546
   -20.7545 -20.7543 -10.7218 -10.5408 -10.3947 -10.2883 -10.2785 -10.2692
   -10.2366 -10.2319 -10.2243 -10.1600 -10.1546 -10.1288  -0.1684  -0.1594
     0.2179   0.2442   0.2633   0.4075   0.4549   0.6221   0.6722   0.7410
     0.8621   0.8623   0.8731   0.9982   1.1250   1.2411   1.2641   1.2678
     1.2728   1.4827   1.5252   1.6950   1.7401   1.9380   1.9804   2.0168
     2.0552   2.0730   2.1871   2.2405   2.3322   2.4622   2.5280   2.5281
     2.5730   2.5792   7.0473   7.3026   7.4452   7.4650   7.4669   7.5186
     7.5471   8.7245   8.7421   8.8085   9.1065   9.1638   9.3651   9.3989
     9.4758   9.7236   9.9171  10.3104  10.3252  10.3769  10.6701  10.8570
    10.9490  11.1005

          k = 0.0000 0.0000 0.0382 ( 81853 PWs)   bands (ev):

   -56.2765 -56.2765 -56.2765 -56.2764 -56.2736 -56.2736 -56.2735 -56.2735
   -56.2588 -56.2588 -56.2587 -56.2587 -56.2537 -56.2536 -56.2536 -56.2536
   -56.2512 -56.2512 -56.2512 -56.2512 -56.2377 -56.2376 -56.2376 -56.2376
   -56.2255 -56.2255 -56.2255 -56.2255 -56.2219 -56.2219 -56.2219 -56.2218
   -56.2108 -56.2108 -56.2108 -56.2107 -56.2079 -56.2079 -56.2078 -56.2078
   -56.1927 -56.1927 -56.1926 -56.1926 -56.1917 -56.1917 -56.1917 -56.1917
   -56.1907 -56.1907 -56.1907 -56.1906 -56.1846 -56.1846 -56.1846 -56.1845
   -56.1816 -56.1816 -56.1816 -56.1816 -46.9321 -46.9320 -42.0680 -42.0680
   -41.7994 -41.7993 -41.7709 -41.7709 -20.7600 -20.7600 -20.7546 -20.7546
   -20.7545 -20.7543 -10.6758 -10.5060 -10.3755 -10.3106 -10.2926 -10.2871
   -10.2560 -10.2406 -10.2225 -10.1773 -10.1658 -10.1329  -0.0739   0.0184
     0.2529   0.2910   0.3280   0.3696   0.4410   0.5134   0.6813   0.8176
     0.8236   0.9411   0.9503   1.0451   1.0733   1.1990   1.2776   1.3100
     1.4261   1.4434   1.4493   1.6095   1.7850   1.9428   1.9536   2.0224
     2.0517   2.0973   2.1306   2.1644   2.2481   2.2504   2.3217   2.4585
     2.4939   2.5028   7.1690   7.2665   7.3117   7.3847   7.4916   7.5468
     8.0626   8.8001   8.8540   8.8821   9.1496   9.3125   9.3394   9.5163
     9.7848   9.8664  10.1252  10.2129  10.3907  10.6659  10.7023  10.8512
    10.9565  10.9645

          k = 0.0000 0.0000-0.0765 ( 81848 PWs)   bands (ev):

   -56.2765 -56.2765 -56.2765 -56.2764 -56.2736 -56.2736 -56.2735 -56.2735
   -56.2588 -56.2588 -56.2587 -56.2587 -56.2537 -56.2536 -56.2536 -56.2536
   -56.2512 -56.2512 -56.2512 -56.2512 -56.2377 -56.2376 -56.2376 -56.2376
   -56.2255 -56.2255 -56.2255 -56.2255 -56.2219 -56.2219 -56.2219 -56.2218
   -56.2108 -56.2108 -56.2108 -56.2107 -56.2079 -56.2079 -56.2078 -56.2078
   -56.1927 -56.1927 -56.1926 -56.1926 -56.1917 -56.1917 -56.1917 -56.1917
   -56.1907 -56.1907 -56.1907 -56.1906 -56.1846 -56.1846 -56.1846 -56.1846
   -56.1816 -56.1816 -56.1816 -56.1816 -46.9321 -46.9320 -42.0680 -42.0680
   -41.7994 -41.7993 -41.7709 -41.7709 -20.7601 -20.7600 -20.7547 -20.7546
   -20.7546 -20.7543 -10.6105 -10.4578 -10.3798 -10.3445 -10.3195 -10.2848
   -10.2726 -10.2578 -10.2406 -10.1828 -10.1631 -10.1420   0.0250   0.1835
     0.1909   0.2488   0.3938   0.4981   0.5828   0.6734   0.6854   0.7348
     0.7824   0.9491   0.9904   1.0446   1.0949   1.2085   1.2706   1.3602
     1.3882   1.4542   1.4662   1.5322   1.6690   1.7954   1.8868   1.8997
     1.9536   2.0697   2.1217   2.1331   2.1439   2.2876   2.2985   2.3347
     2.4568   2.4597   7.1906   7.2149   7.2501   7.3270   7.4872   7.5779
     8.6393   8.7927   8.9073   9.0791   9.1932   9.4469   9.8898   9.9483
     9.9575  10.0376  10.0405  10.1870  10.2477  10.3059  10.7758  10.8080
    10.9744  10.9877

          k = 0.0000-0.0417 0.0000 ( 81836 PWs)   bands (ev):

   -56.2765 -56.2765 -56.2765 -56.2764 -56.2736 -56.2736 -56.2735 -56.2735
   -56.2588 -56.2588 -56.2587 -56.2587 -56.2537 -56.2536 -56.2536 -56.2535
   -56.2512 -56.2512 -56.2512 -56.2512 -56.2377 -56.2376 -56.2376 -56.2376
   -56.2256 -56.2255 -56.2255 -56.2255 -56.2219 -56.2219 -56.2219 -56.2218
   -56.2108 -56.2108 -56.2108 -56.2107 -56.2079 -56.2079 -56.2078 -56.2078
   -56.1927 -56.1927 -56.1926 -56.1926 -56.1917 -56.1917 -56.1917 -56.1917
   -56.1907 -56.1907 -56.1907 -56.1906 -56.1846 -56.1846 -56.1846 -56.1845
   -56.1816 -56.1816 -56.1816 -56.1816 -46.9321 -46.9320 -42.0680 -42.0680
   -41.7994 -41.7993 -41.7709 -41.7709 -20.7600 -20.7599 -20.7546 -20.7545
   -20.7545 -20.7544 -10.6536 -10.6536 -10.3174 -10.3174 -10.2894 -10.2894
   -10.1940 -10.1940 -10.1820 -10.1820 -10.1783 -10.1783  -0.1233  -0.1233
     0.1039   0.1039   0.3376   0.3376   0.5099   0.5099   0.7129   0.7129
     0.8485   0.8485   1.0660   1.0660   1.1407   1.1407   1.3233   1.3233
     1.4261   1.4261   1.7543   1.7543   1.8672   1.8672   1.9394   1.9394
     1.9753   1.9754   2.2787   2.2787   2.3261   2.3261   2.4124   2.4124
     2.5465   2.5465   7.2708   7.2708   7.4556   7.4557   7.4804   7.4804
     8.1048   8.1048   8.8892   8.8893   9.0970   9.0970   9.3646   9.3646
     9.5736   9.5737  10.1336  10.1336  10.2458  10.2458  10.8136  10.8136
    11.1255  11.1256

          k = 0.0000-0.0417 0.0382 ( 81822 PWs)   bands (ev):

   -56.2765 -56.2765 -56.2765 -56.2764 -56.2736 -56.2736 -56.2735 -56.2735
   -56.2588 -56.2588 -56.2587 -56.2587 -56.2537 -56.2536 -56.2536 -56.2536
   -56.2512 -56.2512 -56.2512 -56.2512 -56.2377 -56.2376 -56.2376 -56.2376
   -56.2255 -56.2255 -56.2255 -56.2255 -56.2219 -56.2219 -56.2219 -56.2218
   -56.2108 -56.2108 -56.2108 -56.2107 -56.2079 -56.2079 -56.2078 -56.2078
   -56.1927 -56.1927 -56.1926 -56.1926 -56.1917 -56.1917 -56.1917 -56.1917
   -56.1907 -56.1907 -56.1907 -56.1906 -56.1846 -56.1846 -56.1846 -56.1845
   -56.1816 -56.1816 -56.1816 -56.1816 -46.9321 -46.9320 -42.0680 -42.0680
   -41.7994 -41.7993 -41.7709 -41.7709 -20.7600 -20.7600 -20.7546 -20.7546
   -20.7545 -20.7544 -10.6115 -10.6114 -10.3252 -10.3251 -10.2972 -10.2972
   -10.2108 -10.2108 -10.2066 -10.2066 -10.1701 -10.1701  -0.0308  -0.0307
     0.2270   0.2270   0.3648   0.3648   0.4743   0.4743   0.6043   0.6043
     0.9318   0.9318   1.0438   1.0438   1.2373   1.2373   1.3498   1.3498
     1.5499   1.5499   1.6622   1.6622   1.7790   1.7790   1.8794   1.8794
     1.9704   1.9704   2.1522   2.1522   2.2620   2.2620   2.3655   2.3655
     2.4374   2.4374   7.3290   7.3290   7.3772   7.3772   7.4407   7.4407
     8.4390   8.4390   8.9319   8.9319   9.2530   9.2531   9.6344   9.6344
     9.8918   9.8918   9.9496   9.9496  10.4886  10.4886  10.5671  10.5671
    10.9330  10.9330

          k = 0.0000-0.0417-0.0765 ( 81832 PWs)   bands (ev):

   -56.2765 -56.2765 -56.2765 -56.2764 -56.2736 -56.2736 -56.2735 -56.2735
   -56.2588 -56.2588 -56.2587 -56.2587 -56.2537 -56.2536 -56.2536 -56.2536
   -56.2512 -56.2512 -56.2512 -56.2512 -56.2377 -56.2376 -56.2376 -56.2376
   -56.2255 -56.2255 -56.2255 -56.2255 -56.2219 -56.2219 -56.2219 -56.2218
   -56.2108 -56.2108 -56.2108 -56.2107 -56.2079 -56.2079 -56.2078 -56.2078
   -56.1927 -56.1927 -56.1926 -56.1926 -56.1917 -56.1917 -56.1917 -56.1917
   -56.1907 -56.1907 -56.1907 -56.1906 -56.1846 -56.1846 -56.1846 -56.1845
   -56.1816 -56.1816 -56.1816 -56.1816 -46.9321 -46.9320 -42.0680 -42.0680
   -41.7994 -41.7993 -41.7709 -41.7709 -20.7601 -20.7600 -20.7547 -20.7546
   -20.7545 -20.7544 -10.5505 -10.5505 -10.3688 -10.3687 -10.2998 -10.2998
   -10.2325 -10.2325 -10.1932 -10.1932 -10.1831 -10.1831   0.0538   0.0538
     0.2426   0.2426   0.3735   0.3735   0.6018   0.6018   0.7467   0.7467
     0.9809   0.9809   0.9842   0.9843   1.2421   1.2421   1.2463   1.2463
     1.4912   1.4912   1.5595   1.5595   1.8055   1.8055   1.8991   1.8991
     1.9837   1.9837   1.9971   1.9971   2.1975   2.1975   2.2922   2.2922
     2.3950   2.3950   7.2829   7.2830   7.3439   7.3440   7.4705   7.4706
     8.5947   8.5947   9.2054   9.2054   9.4972   9.4972   9.7992   9.7992
    10.0162  10.0162  10.0196  10.0196  10.5278  10.5279  10.5860  10.5861
    11.1799  11.1799

          k = 0.0359 0.0000 0.0128 ( 81891 PWs)   bands (ev):

   -56.2765 -56.2765 -56.2765 -56.2764 -56.2736 -56.2736 -56.2735 -56.2735
   -56.2588 -56.2588 -56.2587 -56.2587 -56.2537 -56.2536 -56.2536 -56.2536
   -56.2512 -56.2512 -56.2512 -56.2512 -56.2377 -56.2376 -56.2376 -56.2376
   -56.2256 -56.2255 -56.2255 -56.2255 -56.2219 -56.2219 -56.2219 -56.2218
   -56.2108 -56.2108 -56.2108 -56.2107 -56.2079 -56.2079 -56.2078 -56.2078
   -56.1927 -56.1927 -56.1926 -56.1926 -56.1917 -56.1917 -56.1917 -56.1917
   -56.1907 -56.1907 -56.1907 -56.1906 -56.1846 -56.1846 -56.1846 -56.1846
   -56.1816 -56.1816 -56.1816 -56.1816 -46.9321 -46.9320 -42.0680 -42.0680
   -41.7994 -41.7993 -41.7709 -41.7709 -20.7600 -20.7599 -20.7547 -20.7546
   -20.7546 -20.7544 -10.6660 -10.5048 -10.3760 -10.3327 -10.2977 -10.2757
   -10.2450 -10.2426 -10.2190 -10.1893 -10.1536 -10.1404  -0.0910   0.0485
     0.2766   0.2777   0.3455   0.3950   0.4503   0.5315   0.7033   0.7568
     0.8334   0.8417   0.8934   0.9686   1.0405   1.1339   1.3527   1.3627
     1.4025   1.5084   1.6305   1.6864   1.8124   1.8442   1.9288   2.0104
     2.0109   2.0944   2.1331   2.1504   2.2268   2.2400   2.3251   2.4734
     2.4848   2.5246   7.1627   7.3371   7.3865   7.3930   7.4226   7.4488
     8.0602   8.8367   8.9053   8.9705   9.0320   9.0393   9.4185   9.6974
     9.7071   9.9482  10.0904  10.2121  10.3965  10.5394  10.6342  10.8057
    10.9857  11.0958

          k = 0.0359 0.0000 0.0510 ( 81828 PWs)   bands (ev):

   -56.2765 -56.2765 -56.2765 -56.2764 -56.2736 -56.2736 -56.2735 -56.2735
   -56.2588 -56.2588 -56.2587 -56.2587 -56.2537 -56.2536 -56.2536 -56.2536
   -56.2512 -56.2512 -56.2512 -56.2512 -56.2377 -56.2376 -56.2376 -56.2376
   -56.2255 -56.2255 -56.2255 -56.2255 -56.2219 -56.2219 -56.2219 -56.2218
   -56.2108 -56.2108 -56.2108 -56.2107 -56.2079 -56.2079 -56.2078 -56.2078
   -56.1927 -56.1927 -56.1926 -56.1926 -56.1917 -56.1917 -56.1917 -56.1917
   -56.1907 -56.1907 -56.1907 -56.1906 -56.1846 -56.1846 -56.1846 -56.1846
   -56.1816 -56.1816 -56.1816 -56.1816 -46.9321 -46.9320 -42.0680 -42.0680
   -41.7994 -41.7993 -41.7709 -41.7709 -20.7600 -20.7600 -20.7547 -20.7546
   -20.7546 -20.7544 -10.6024 -10.4632 -10.3645 -10.3405 -10.3351 -10.2801
   -10.2675 -10.2530 -10.2511 -10.1963 -10.1606 -10.1418   0.0744   0.1287
     0.2324   0.2712   0.4712   0.4875   0.5451   0.5785   0.6391   0.7417
     0.7528   0.8928   1.0482   1.0531   1.0569   1.1629   1.2743   1.2860
     1.3419   1.4331   1.5801   1.6899   1.7576   1.8681   1.9340   1.9584
     1.9953   2.0007   2.0742   2.1402   2.2179   2.2244   2.2316   2.2593
     2.3703   2.4909   7.1910   7.2424   7.3562   7.3673   7.4684   7.4792
     8.6447   8.6849   8.9580   9.0075   9.0233   9.5107   9.5677   9.7949
     9.8772  10.0096  10.1212  10.2478  10.2540  10.5099  10.5603  10.7944
    11.0902  11.3000

          k = 0.0359 0.0000-0.0637 ( 81869 PWs)   bands (ev):

   -56.2765 -56.2765 -56.2765 -56.2764 -56.2736 -56.2736 -56.2735 -56.2735
   -56.2588 -56.2588 -56.2587 -56.2587 -56.2537 -56.2536 -56.2536 -56.2536
   -56.2512 -56.2512 -56.2512 -56.2512 -56.2377 -56.2376 -56.2376 -56.2376
   -56.2256 -56.2255 -56.2255 -56.2255 -56.2219 -56.2219 -56.2219 -56.2218
   -56.2108 -56.2108 -56.2108 -56.2107 -56.2079 -56.2079 -56.2078 -56.2078
   -56.1927 -56.1927 -56.1926 -56.1926 -56.1917 -56.1917 -56.1917 -56.1917
   -56.1907 -56.1907 -56.1907 -56.1906 -56.1846 -56.1846 -56.1846 -56.1845
   -56.1816 -56.1816 -56.1816 -56.1816 -46.9321 -46.9320 -42.0680 -42.0680
   -41.7994 -41.7993 -41.7709 -41.7709 -20.7601 -20.7600 -20.7547 -20.7547
   -20.7546 -20.7544 -10.5736 -10.4326 -10.3651 -10.3599 -10.3122 -10.2988
   -10.2937 -10.2612 -10.2511 -10.1752 -10.1699 -10.1658  -0.0094  -0.0070
     0.2106   0.2212   0.3970   0.4133   0.4797   0.5517   0.5763   0.6657
     0.7170   0.9209   1.0846   1.1139   1.1883   1.2595   1.3868   1.4557
     1.4564   1.6367   1.7122   1.7140   1.7649   1.8638   1.8863   1.8913
     1.9587   1.9903   2.0639   2.1413   2.1931   2.2612   2.2828   2.2984
     2.4246   2.4734   7.1138   7.1972   7.2688   7.2880   7.3747   7.4558
     8.6614   8.7248   9.0946   9.1341   9.1699   9.2393   9.5175   9.5406
     9.6755   9.8373   9.8862  10.0006  10.0437  10.1095  10.3260  10.4584
    11.0424  11.2088

          k = 0.0359 0.0000-0.0255 ( 81890 PWs)   bands (ev):

   -56.2765 -56.2765 -56.2765 -56.2764 -56.2736 -56.2736 -56.2735 -56.2735
   -56.2588 -56.2588 -56.2587 -56.2587 -56.2537 -56.2536 -56.2536 -56.2535
   -56.2512 -56.2512 -56.2512 -56.2512 -56.2377 -56.2376 -56.2376 -56.2376
   -56.2256 -56.2255 -56.2255 -56.2255 -56.2219 -56.2219 -56.2219 -56.2218
   -56.2108 -56.2108 -56.2108 -56.2107 -56.2079 -56.2079 -56.2078 -56.2078
   -56.1927 -56.1927 -56.1926 -56.1926 -56.1917 -56.1917 -56.1917 -56.1917
   -56.1907 -56.1907 -56.1907 -56.1906 -56.1846 -56.1846 -56.1846 -56.1845
   -56.1816 -56.1816 -56.1816 -56.1816 -46.9321 -46.9320 -42.0680 -42.0680
   -41.7994 -41.7993 -41.7709 -41.7709 -20.7600 -20.7600 -20.7547 -20.7546
   -20.7546 -20.7544 -10.6483 -10.4864 -10.3643 -10.3165 -10.3094 -10.2791
   -10.2677 -10.2455 -10.2281 -10.1812 -10.1630 -10.1563  -0.1334  -0.0266
     0.1926   0.2547   0.2956   0.3495   0.4005   0.4206   0.5386   0.6261
     0.7241   0.8985   1.0535   1.0981   1.2392   1.3161   1.3689   1.4436
     1.5813   1.6836   1.7005   1.7670   1.7918   1.8050   1.8514   1.9399
     2.0083   2.0615   2.1209   2.1447   2.3153   2.3389   2.3993   2.4138
     2.4656   2.5378   7.1076   7.2344   7.2572   7.3406   7.3689   7.4202
     8.0915   8.7180   8.9215   9.0133   9.1801   9.2719   9.4225   9.5257
     9.5603   9.7526   9.7831   9.9349   9.9646  10.2075  10.2307  10.3113
    10.8486  11.1907

          k = 0.0359-0.0417 0.0128 ( 81838 PWs)   bands (ev):

   -56.2765 -56.2765 -56.2765 -56.2764 -56.2736 -56.2736 -56.2735 -56.2735
   -56.2588 -56.2588 -56.2587 -56.2587 -56.2537 -56.2536 -56.2536 -56.2536
   -56.2512 -56.2512 -56.2512 -56.2512 -56.2377 -56.2376 -56.2376 -56.2376
   -56.2255 -56.2255 -56.2255 -56.2255 -56.2219 -56.2219 -56.2219 -56.2218
   -56.2108 -56.2108 -56.2108 -56.2107 -56.2079 -56.2079 -56.2078 -56.2078
   -56.1927 -56.1927 -56.1926 -56.1926 -56.1917 -56.1917 -56.1917 -56.1917
   -56.1907 -56.1907 -56.1907 -56.1906 -56.1846 -56.1846 -56.1846 -56.1845
   -56.1816 -56.1816 -56.1816 -56.1816 -46.9321 -46.9320 -42.0680 -42.0680
   -41.7994 -41.7993 -41.7709 -41.7709 -20.7600 -20.7599 -20.7547 -20.7546
   -20.7545 -20.7544 -10.6053 -10.6053 -10.3190 -10.3190 -10.3051 -10.3050
   -10.2327 -10.2327 -10.1986 -10.1986 -10.1607 -10.1606  -0.0279  -0.0279
     0.2419   0.2419   0.3210   0.3210   0.5293   0.5294   0.5941   0.5941
     0.8843   0.8843   1.0602   1.0602   1.2753   1.2753   1.3772   1.3772
     1.4899   1.4899   1.6720   1.6720   1.7172   1.7172   1.8667   1.8667
     2.0340   2.0340   2.1261   2.1261   2.3061   2.3061   2.3461   2.3461
     2.4486   2.4486   7.3347   7.3348   7.3957   7.3958   7.4103   7.4104
     8.4122   8.4123   9.0226   9.0226   9.1320   9.1320   9.6071   9.6071
     9.8535   9.8535  10.1427  10.1427  10.3820  10.3821  10.5266  10.5266
    11.0642  11.0642

          k = 0.0359-0.0417 0.0510 ( 81892 PWs)   bands (ev):

   -56.2765 -56.2765 -56.2765 -56.2764 -56.2736 -56.2736 -56.2735 -56.2735
   -56.2588 -56.2588 -56.2587 -56.2587 -56.2537 -56.2536 -56.2536 -56.2536
   -56.2512 -56.2512 -56.2512 -56.2512 -56.2377 -56.2376 -56.2376 -56.2376
   -56.2255 -56.2255 -56.2255 -56.2255 -56.2219 -56.2219 -56.2219 -56.2218
   -56.2108 -56.2108 -56.2108 -56.2107 -56.2079 -56.2079 -56.2078 -56.2078
   -56.1927 -56.1927 -56.1926 -56.1926 -56.1917 -56.1917 -56.1917 -56.1917
   -56.1907 -56.1907 -56.1907 -56.1906 -56.1846 -56.1846 -56.1846 -56.1846
   -56.1816 -56.1816 -56.1816 -56.1816 -46.9321 -46.9320 -42.0680 -42.0680
   -41.7994 -41.7993 -41.7709 -41.7709 -20.7600 -20.7600 -20.7547 -20.7547
   -20.7545 -20.7544 -10.5492 -10.5492 -10.3422 -10.3422 -10.3081 -10.3080
   -10.2503 -10.2503 -10.2240 -10.2240 -10.1542 -10.1542   0.0311   0.0311
     0.2888   0.2888   0.4272   0.4272   0.5906   0.5906   0.6808   0.6808
     0.8427   0.8427   1.0095   1.0095   1.1861   1.1861   1.4730   1.4730
     1.5428   1.5428   1.6003   1.6003   1.6669   1.6669   1.8163   1.8163
     1.9583   1.9583   2.1153   2.1153   2.2231   2.2231   2.2877   2.2877
     2.3549   2.3549   7.2891   7.2891   7.3592   7.3593   7.4664   7.4664
     8.5592   8.5592   9.1077   9.1077   9.4925   9.4925   9.8051   9.8051
     9.8702   9.8702  10.1493  10.1493  10.2602  10.2603  10.6051  10.6051
    11.1311  11.1311

          k = 0.0359-0.0417-0.0637 ( 81890 PWs)   bands (ev):

   -56.2765 -56.2765 -56.2765 -56.2764 -56.2736 -56.2736 -56.2735 -56.2735
   -56.2588 -56.2588 -56.2587 -56.2587 -56.2537 -56.2536 -56.2536 -56.2536
   -56.2512 -56.2512 -56.2512 -56.2512 -56.2377 -56.2376 -56.2376 -56.2376
   -56.2256 -56.2255 -56.2255 -56.2255 -56.2219 -56.2219 -56.2219 -56.2218
   -56.2108 -56.2108 -56.2108 -56.2107 -56.2079 -56.2079 -56.2078 -56.2078
   -56.1927 -56.1927 -56.1926 -56.1926 -56.1917 -56.1917 -56.1917 -56.1917
   -56.1907 -56.1907 -56.1907 -56.1906 -56.1846 -56.1846 -56.1846 -56.1846
   -56.1816 -56.1816 -56.1816 -56.1816 -46.9321 -46.9320 -42.0680 -42.0680
   -41.7994 -41.7993 -41.7709 -41.7709 -20.7601 -20.7600 -20.7547 -20.7547
   -20.7545 -20.7544 -10.5188 -10.5188 -10.3601 -10.3601 -10.3172 -10.3172
   -10.2410 -10.2410 -10.2168 -10.2168 -10.1755 -10.1755  -0.1019  -0.1019
     0.3043   0.3043   0.3458   0.3458   0.5425   0.5426   0.6433   0.6433
     0.8765   0.8765   1.1206   1.1206   1.2627   1.2627   1.4530   1.4530
     1.5463   1.5463   1.6268   1.6268   1.7818   1.7818   1.8966   1.8966
     2.0105   2.0105   2.0911   2.0911   2.1795   2.1795   2.2847   2.2847
     2.4250   2.4251   7.1674   7.1674   7.3281   7.3281   7.3995   7.3995
     8.7030   8.7030   9.0403   9.0404   9.2845   9.2845   9.4590   9.4590
     9.6533   9.6533  10.2252  10.2252  10.5299  10.5299  10.7144  10.7144
    10.9103  10.9103

          k = 0.0359-0.0417-0.0255 ( 81864 PWs)   bands (ev):

   -56.2765 -56.2765 -56.2765 -56.2764 -56.2736 -56.2736 -56.2735 -56.2735
   -56.2588 -56.2588 -56.2587 -56.2587 -56.2537 -56.2536 -56.2536 -56.2535
   -56.2512 -56.2512 -56.2512 -56.2512 -56.2377 -56.2376 -56.2376 -56.2376
   -56.2256 -56.2255 -56.2255 -56.2255 -56.2219 -56.2219 -56.2219 -56.2218
   -56.2108 -56.2108 -56.2108 -56.2107 -56.2079 -56.2079 -56.2078 -56.2078
   -56.1927 -56.1927 -56.1926 -56.1926 -56.1917 -56.1917 -56.1917 -56.1917
   -56.1907 -56.1907 -56.1907 -56.1906 -56.1846 -56.1846 -56.1846 -56.1845
   -56.1816 -56.1816 -56.1816 -56.1816 -46.9321 -46.9320 -42.0680 -42.0680
   -41.7994 -41.7993 -41.7709 -41.7709 -20.7600 -20.7600 -20.7547 -20.7547
   -20.7545 -20.7544 -10.5870 -10.5870 -10.3285 -10.3284 -10.2964 -10.2964
   -10.2275 -10.2275 -10.2001 -10.2001 -10.1835 -10.1834  -0.1225  -0.1225
     0.2196   0.2196   0.3155   0.3155   0.4327   0.4327   0.4898   0.4899
     0.9667   0.9667   1.1575   1.1575   1.3671   1.3671   1.4919   1.4919
     1.5180   1.5180   1.6279   1.6279   1.7346   1.7346   1.9272   1.9272
     2.0230   2.0230   2.0946   2.0946   2.3446   2.3446   2.4127   2.4127
     2.4579   2.4579   7.2307   7.2307   7.2917   7.2918   7.3797   7.3798
     8.5274   8.5274   8.8610   8.8611   9.1076   9.1077   9.5567   9.5567
     9.7092   9.7092  10.0800  10.0800  10.1953  10.1953  10.2780  10.2780
    11.0118  11.0119

          k =-0.0718 0.0000-0.0255 ( 81844 PWs)   bands (ev):

   -56.2765 -56.2765 -56.2765 -56.2764 -56.2736 -56.2736 -56.2735 -56.2735
   -56.2588 -56.2588 -56.2587 -56.2587 -56.2537 -56.2536 -56.2536 -56.2536
   -56.2512 -56.2512 -56.2512 -56.2512 -56.2377 -56.2376 -56.2376 -56.2376
   -56.2255 -56.2255 -56.2255 -56.2255 -56.2219 -56.2219 -56.2219 -56.2218
   -56.2108 -56.2108 -56.2108 -56.2107 -56.2079 -56.2079 -56.2078 -56.2078
   -56.1927 -56.1927 -56.1926 -56.1926 -56.1917 -56.1917 -56.1917 -56.1917
   -56.1907 -56.1907 -56.1907 -56.1906 -56.1846 -56.1846 -56.1846 -56.1846
   -56.1816 -56.1816 -56.1816 -56.1816 -46.9321 -46.9320 -42.0680 -42.0680
   -41.7994 -41.7993 -41.7709 -41.7709 -20.7600 -20.7599 -20.7548 -20.7547
   -20.7545 -20.7544 -10.5348 -10.5348 -10.3477 -10.3477 -10.3236 -10.3236
   -10.2699 -10.2699 -10.1916 -10.1916 -10.1606 -10.1606   0.0663   0.0663
     0.3785   0.3785   0.4253   0.4253   0.5085   0.5085   0.7341   0.7341
     0.8375   0.8375   1.0044   1.0045   1.1202   1.1202   1.1472   1.1472
     1.5898   1.5898   1.6748   1.6748   1.7172   1.7172   1.8370   1.8370
     2.0447   2.0447   2.0616   2.0616   2.1978   2.1978   2.3645   2.3645
     2.4210   2.4210   7.2736   7.2737   7.3124   7.3125   7.4276   7.4277
     8.7477   8.7478   8.9071   8.9071   9.2884   9.2884   9.8002   9.8002
    10.0613  10.0613  10.1566  10.1566  10.3743  10.3743  10.7163  10.7163
    11.1703  11.1704

          k =-0.0718 0.0000 0.0127 ( 81916 PWs)   bands (ev):

   -56.2765 -56.2765 -56.2765 -56.2765 -56.2736 -56.2736 -56.2735 -56.2735
   -56.2588 -56.2588 -56.2587 -56.2587 -56.2537 -56.2536 -56.2536 -56.2536
   -56.2512 -56.2512 -56.2512 -56.2512 -56.2377 -56.2376 -56.2376 -56.2376
   -56.2256 -56.2255 -56.2255 -56.2255 -56.2219 -56.2219 -56.2219 -56.2218
   -56.2108 -56.2108 -56.2108 -56.2107 -56.2079 -56.2079 -56.2078 -56.2078
   -56.1927 -56.1927 -56.1926 -56.1926 -56.1917 -56.1917 -56.1917 -56.1917
   -56.1907 -56.1907 -56.1907 -56.1906 -56.1846 -56.1846 -56.1846 -56.1845
   -56.1816 -56.1816 -56.1816 -56.1816 -46.9321 -46.9320 -42.0680 -42.0680
   -41.7994 -41.7993 -41.7709 -41.7709 -20.7600 -20.7599 -20.7548 -20.7547
   -20.7545 -20.7544 -10.5358 -10.4801 -10.3566 -10.3331 -10.3299 -10.3040
   -10.2978 -10.2795 -10.2209 -10.1892 -10.1718 -10.1608  -0.0927   0.0943
     0.2394   0.3013   0.3714   0.4207   0.4611   0.5343   0.5398   0.6039
     0.7134   0.9313   0.9544   1.1273   1.2312   1.3050   1.3663   1.4510
     1.5119   1.6836   1.6908   1.7283   1.7693   1.7913   1.8426   1.9878
     2.0141   2.0630   2.0808   2.0879   2.1358   2.1961   2.3166   2.3346
     2.3701   2.4784   7.1557   7.2277   7.2640   7.2680   7.3702   7.3857
     8.6348   8.8940   8.9592   9.0583   9.1756   9.3591   9.3728   9.6055
     9.7360   9.7418   9.9003   9.9425  10.1325  10.2230  10.2842  10.4339
    11.0608  11.2109

          k =-0.0718 0.0000-0.1020 ( 81920 PWs)   bands (ev):

   -56.2765 -56.2765 -56.2765 -56.2764 -56.2736 -56.2736 -56.2735 -56.2735
   -56.2588 -56.2588 -56.2587 -56.2587 -56.2537 -56.2536 -56.2536 -56.2535
   -56.2512 -56.2512 -56.2512 -56.2512 -56.2377 -56.2376 -56.2376 -56.2376
   -56.2256 -56.2255 -56.2255 -56.2255 -56.2219 -56.2219 -56.2219 -56.2218
   -56.2108 -56.2108 -56.2108 -56.2107 -56.2079 -56.2079 -56.2078 -56.2078
   -56.1927 -56.1927 -56.1926 -56.1926 -56.1917 -56.1917 -56.1917 -56.1917
   -56.1907 -56.1907 -56.1907 -56.1906 -56.1846 -56.1846 -56.1846 -56.1846
   -56.1816 -56.1816 -56.1816 -56.1816 -46.9321 -46.9320 -42.0680 -42.0680
   -41.7994 -41.7993 -41.7709 -41.7709 -20.7600 -20.7600 -20.7548 -20.7548
   -20.7545 -20.7544 -10.4803 -10.4803 -10.3527 -10.3527 -10.3223 -10.3223
   -10.2765 -10.2765 -10.2271 -10.2271 -10.1723 -10.1723  -0.0784  -0.0784
     0.1875   0.1875   0.3233   0.3233   0.3898   0.3898   0.6077   0.6077
     0.8610   0.8610   1.1777   1.1777   1.2973   1.2973   1.5676   1.5676
     1.6414   1.6414   1.6965   1.6965   1.8207   1.8207   1.8454   1.8454
     2.0435   2.0435   2.0947   2.0947   2.2797   2.2797   2.3080   2.3080
     2.4563   2.4563   7.1506   7.1507   7.2200   7.2201   7.2692   7.2693
     8.6308   8.6308   9.0232   9.0232   9.1835   9.1835   9.3156   9.3157
     9.5679   9.5679   9.7582   9.7582  10.0923  10.0923  10.3978  10.3978
    11.0404  11.0404

          k =-0.0718-0.0417-0.0255 ( 81848 PWs)   bands (ev):

   -56.2765 -56.2765 -56.2765 -56.2764 -56.2736 -56.2736 -56.2735 -56.2735
   -56.2588 -56.2588 -56.2587 -56.2587 -56.2537 -56.2536 -56.2536 -56.2536
   -56.2512 -56.2512 -56.2512 -56.2512 -56.2377 -56.2376 -56.2376 -56.2376
   -56.2255 -56.2255 -56.2255 -56.2255 -56.2219 -56.2219 -56.2219 -56.2218
   -56.2108 -56.2108 -56.2108 -56.2107 -56.2079 -56.2079 -56.2078 -56.2078
   -56.1927 -56.1927 -56.1926 -56.1926 -56.1917 -56.1917 -56.1917 -56.1917
   -56.1907 -56.1907 -56.1907 -56.1906 -56.1846 -56.1846 -56.1846 -56.1845
   -56.1816 -56.1816 -56.1816 -56.1816 -46.9321 -46.9320 -42.0680 -42.0680
   -41.7994 -41.7993 -41.7709 -41.7709 -20.7600 -20.7599 -20.7548 -20.7547
   -20.7545 -20.7544 -10.5268 -10.5268 -10.3908 -10.3908 -10.2877 -10.2877
   -10.2532 -10.2532 -10.2148 -10.2148 -10.1549 -10.1549   0.0168   0.0168
     0.2626   0.2626   0.4765   0.4765   0.6428   0.6428   0.6553   0.6553
     0.9198   0.9199   0.9806   0.9806   1.1996   1.1996   1.3247   1.3247
     1.4963   1.4963   1.5122   1.5123   1.7988   1.7988   1.8380   1.8380
     1.9975   1.9975   2.0771   2.0771   2.1527   2.1527   2.3123   2.3123
     2.4340   2.4340   7.2232   7.2232   7.3574   7.3574   7.4805   7.4805
     8.6070   8.6070   9.3405   9.3406   9.4573   9.4573   9.7267   9.7267
     9.7644   9.7644  10.0824  10.0825  10.6210  10.6210  10.7958  10.7958
    10.9533  10.9533

          k =-0.0718-0.0417 0.0127 ( 81930 PWs)   bands (ev):

   -56.2765 -56.2765 -56.2765 -56.2765 -56.2736 -56.2736 -56.2735 -56.2735
   -56.2588 -56.2588 -56.2587 -56.2587 -56.2537 -56.2536 -56.2536 -56.2536
   -56.2512 -56.2512 -56.2512 -56.2512 -56.2377 -56.2376 -56.2376 -56.2376
   -56.2256 -56.2255 -56.2255 -56.2255 -56.2219 -56.2219 -56.2219 -56.2218
   -56.2108 -56.2108 -56.2108 -56.2107 -56.2079 -56.2079 -56.2078 -56.2078
   -56.1927 -56.1927 -56.1926 -56.1926 -56.1917 -56.1917 -56.1917 -56.1917
   -56.1907 -56.1907 -56.1907 -56.1906 -56.1846 -56.1846 -56.1846 -56.1846
   -56.1816 -56.1816 -56.1816 -56.1816 -46.9321 -46.9320 -42.0680 -42.0680
   -41.7994 -41.7993 -41.7709 -41.7709 -20.7600 -20.7599 -20.7548 -20.7547
   -20.7545 -20.7544 -10.5037 -10.5037 -10.3760 -10.3760 -10.3130 -10.3129
   -10.2534 -10.2534 -10.2175 -10.2175 -10.1662 -10.1662  -0.1073  -0.1073
     0.2948   0.2948   0.3970   0.3970   0.5051   0.5051   0.6448   0.6449
     0.9471   0.9471   1.0697   1.0697   1.1992   1.1992   1.4826   1.4826
     1.5290   1.5290   1.6259   1.6259   1.7480   1.7480   1.9491   1.9491
     2.0526   2.0526   2.0929   2.0929   2.1530   2.1530   2.2654   2.2654
     2.4416   2.4416   7.1380   7.1380   7.3457   7.3457   7.4066   7.4067
     8.7565   8.7566   8.9619   8.9620   9.1948   9.1948   9.4876   9.4876
     9.7390   9.7390  10.1978  10.1978  10.5630  10.5631  10.7889  10.7890
    10.8743  10.8743

          k =-0.0718-0.0417-0.1020 ( 81840 PWs)   bands (ev):

   -56.2765 -56.2765 -56.2765 -56.2764 -56.2736 -56.2736 -56.2735 -56.2735
   -56.2588 -56.2588 -56.2587 -56.2587 -56.2537 -56.2536 -56.2536 -56.2535
   -56.2512 -56.2512 -56.2512 -56.2512 -56.2377 -56.2376 -56.2376 -56.2376
   -56.2256 -56.2255 -56.2255 -56.2255 -56.2219 -56.2219 -56.2219 -56.2218
   -56.2108 -56.2108 -56.2108 -56.2107 -56.2079 -56.2079 -56.2078 -56.2078
   -56.1927 -56.1927 -56.1926 -56.1926 -56.1917 -56.1917 -56.1917 -56.1917
   -56.1907 -56.1907 -56.1907 -56.1906 -56.1846 -56.1846 -56.1846 -56.1846
   -56.1816 -56.1816 -56.1816 -56.1816 -46.9321 -46.9320 -42.0680 -42.0680
   -41.7994 -41.7993 -41.7709 -41.7709 -20.7600 -20.7600 -20.7548 -20.7548
   -20.7545 -20.7544 -10.4658 -10.4657 -10.3870 -10.3870 -10.3269 -10.3268
   -10.2489 -10.2489 -10.2164 -10.2164 -10.1863 -10.1863  -0.2059  -0.2059
     0.2426   0.2426   0.3302   0.3302   0.4934   0.4934   0.6857   0.6857
     0.9556   0.9556   1.1118   1.1118   1.2147   1.2147   1.5199   1.5199
     1.5486   1.5486   1.6823   1.6823   1.7402   1.7402   1.9839   1.9840
     2.1133   2.1133   2.1358   2.1358   2.2726   2.2726   2.3063   2.3063
     2.3669   2.3669   7.0313   7.0313   7.2997   7.2998   7.3555   7.3555
     8.6869   8.6869   8.7785   8.7785   9.1450   9.1450   9.2486   9.2487
     9.7480   9.7480  10.1585  10.1585  10.6116  10.6116  10.7738  10.7738
    10.8714  10.8714

     the Fermi energy is     4.8540 ev

!    total energy              =   -6740.56179589 Ry

     total all-electron energy =   -114993.577754 Ry
     estimated scf accuracy    <          8.6E-09 Ry
     smearing contrib. (-TS)   =      -0.00000000 Ry
     internal energy E=F+TS    =   -6740.56179589 Ry

     The total energy is F=E-TS. E is the sum of the following terms:
     one-electron contribution =   -3515.77526823 Ry
     hartree contribution      =    1687.88641079 Ry
     xc contribution           =    -503.21487645 Ry
     ewald contribution        =   -1690.68325647 Ry
     one-center paw contrib.   =   -2718.77480554 Ry

     convergence has been achieved in   9 iterations

     Forces acting on atoms (cartesian axes, Ry/au):

     atom    1 type  1   force =     0.00000000   -0.00206172    0.00000000
     atom    2 type  1   force =     0.00000000    0.00042144    0.00000000
     atom    3 type  1   force =     0.00000000   -0.00039594    0.00000000
     atom    4 type  1   force =     0.00000000   -0.00206070    0.00000000
     atom    5 type  1   force =     0.00000000    0.00042690    0.00000000
     atom    6 type  1   force =     0.00000000   -0.00039850    0.00000000
     atom    7 type  2   force =     0.00000000    0.00081602    0.00000000
     atom    8 type  2   force =     0.00000000    0.00082047    0.00000000
     atom    9 type  3   force =     0.00087695    0.00150900    0.00388413
     atom   10 type  3   force =     0.00318505   -0.00240636    0.00127224
     atom   11 type  3   force =    -0.00318505   -0.00240636   -0.00127224
     atom   12 type  3   force =    -0.00087695    0.00150900   -0.00388413
     atom   13 type  3   force =    -0.00318124    0.00147719    0.00333098
     atom   14 type  3   force =     0.00318124    0.00147719   -0.00333098
     atom   15 type  3   force =     0.00087883    0.00148088    0.00392775
     atom   16 type  3   force =     0.00316156   -0.00236245    0.00125640
     atom   17 type  3   force =    -0.00316156   -0.00236245   -0.00125640
     atom   18 type  3   force =    -0.00087883    0.00148088   -0.00392775
     atom   19 type  3   force =    -0.00312724    0.00151777    0.00333468
     atom   20 type  3   force =     0.00312724    0.00151777   -0.00333468

     Total force =     0.015690     Total SCF correction =     0.000313


     Computing stress (Cartesian axis) and pressure

          total   stress  (Ry/bohr**3)                   (kbar)     P=       -4.91
  -0.00003655   0.00000000   0.00000130           -5.38        0.00        0.19
   0.00000000  -0.00003807   0.00000000            0.00       -5.60        0.00
   0.00000130   0.00000000  -0.00002558            0.19        0.00       -3.76


     Writing output data file ./pwscf.save/
 
     init_run     :      7.88s CPU      8.33s WALL (       1 calls)
     electrons    :    170.06s CPU    175.61s WALL (       1 calls)
     forces       :      3.49s CPU      3.59s WALL (       1 calls)
     stress       :     28.57s CPU     29.03s WALL (       1 calls)

     Called by init_run:
     wfcinit      :      5.14s CPU      5.38s WALL (       1 calls)
     potinit      :      0.96s CPU      0.98s WALL (       1 calls)
     hinit0       :      1.26s CPU      1.34s WALL (       1 calls)

     Called by electrons:
     c_bands      :    143.85s CPU    148.10s WALL (      10 calls)
     sum_band     :     22.79s CPU     23.52s WALL (      10 calls)
     v_of_rho     :      0.85s CPU      0.87s WALL (      10 calls)
     newd         :      1.68s CPU      1.99s WALL (      10 calls)
     PAW_pot      :      0.85s CPU      0.87s WALL (      10 calls)
     mix_rho      :      0.19s CPU      0.20s WALL (      10 calls)

     Called by c_bands:
     init_us_2    :      2.18s CPU      2.20s WALL (     230 calls)
     cegterg      :    133.11s CPU    137.14s WALL (     100 calls)

     Called by *egterg:
     cdiaghg      :     16.55s CPU     16.93s WALL (     542 calls)
     h_psi        :     78.84s CPU     81.09s WALL (     562 calls)
     s_psi        :      8.60s CPU      8.74s WALL (     562 calls)
     g_psi        :      0.44s CPU      0.44s WALL (     452 calls)

     Called by h_psi:
     h_psi:calbec :      8.51s CPU      8.72s WALL (     562 calls)
     vloc_psi     :     60.44s CPU     61.78s WALL (     562 calls)
     add_vuspsi   :      8.84s CPU      8.88s WALL (     562 calls)

     General routines
     calbec       :     13.26s CPU     13.50s WALL (     712 calls)
     fft          :      0.78s CPU      0.87s WALL (     154 calls)
     ffts         :      0.04s CPU      0.04s WALL (      20 calls)
     fftw         :     60.29s CPU     61.46s WALL (   86638 calls)
     interpolate  :      0.09s CPU      0.09s WALL (      10 calls)
 
     Parallel routines
     fft_scatt_xy :     13.52s CPU     13.91s WALL (   86812 calls)
     fft_scatt_yz :     19.86s CPU     20.14s WALL (   86812 calls)
 
     PWSCF        :   3m31.50s CPU   3m41.99s WALL

 
   This run was terminated on:  17:25:42   2Aug2021            

=------------------------------------------------------------------------------=
   JOB DONE.
=------------------------------------------------------------------------------=
