
     Program PWSCF v.6.7MaX starts on  2Aug2021 at 18: 2:10 

     This program is part of the open-source Quantum ESPRESSO suite
     for quantum simulation of materials; please cite
         "P. Giannozzi et al., J. Phys.:Condens. Matter 21 395502 (2009);
         "P. Giannozzi et al., J. Phys.:Condens. Matter 29 465901 (2017);
          URL http://www.quantum-espresso.org", 
     in publications or presentations arising from this work. More details at
     http://www.quantum-espresso.org/quote

     Parallel version (MPI), running on    48 processors

     MPI processes distributed on     2 nodes
     K-points division:     npool     =       2
     R & G space division:  proc/nbgrp/npool/nimage =      24
     Waiting for input...
     Reading input from standard input
Warning: card &CELL ignored
Warning: card CELL_DYNAMICS             = 'BFGS', ignored
Warning: card PRESS                     = '0.0', ignored
Warning: card PRESS_CONV_THR            = '0.5', ignored
Warning: card / ignored
     Message from routine read_cards :
     DEPRECATED: no units specified in CELL_PARAMETERS card

     Current dimensions of program PWSCF are:
     Max number of different atomic species (ntypx) = 10
     Max number of k-points (npk) =  40000
     Max angular momentum in pseudopotentials (lmaxx) =  3
     Message from routine cell_base_init:
     DEPRECATED: use true lattice parameter, not A to a.u. conversion factor
 end of file reached, closing tag not found
     file Er.pbe-spdn-kjpaw_psl.1.0.0.UPF: wavefunction(s)  6S 5D renormalized
     file Br.pbe-dn-kjpaw_psl.1.0.0.UPF: wavefunction(s)  4S 4P 3D renormalized

     Subspace diagonalization in iterative solution of the eigenvalue problem:
     a serial algorithm will be used

     Found symmetry operation: I + ( -0.5000 -0.5000  0.0000)
     This is a supercell, fractional translations are disabled
     Message from routine setup:
     using ibrav=0 with symmetry is DISCOURAGED, use correct ibrav instead
 
     Parallelization info
     --------------------
     sticks:   dense  smooth     PW     G-vecs:    dense   smooth      PW
     Min         198     158     45                 7341     5253     801
     Max         199     159     46                 7343     5255     804
     Sum        4753    3799   1089               176197   126097   19255
 


     bravais-lattice index     =            0
     lattice parameter (alat)  =       1.8897  a.u.
     unit-cell volume          =    3688.3023 (a.u.)^3
     number of atoms/cell      =           20
     number of atomic types    =            3
     number of electrons       =       244.00
     number of Kohn-Sham states=          146
     kinetic-energy cutoff     =      40.0000  Ry
     charge density cutoff     =     200.0000  Ry
     scf convergence threshold =      1.0E-08
     mixing beta               =       0.4000
     number of iterations used =            8  plain     mixing
     Exchange-correlation= SLA  PW   PBX  PBC
                           (   1   4   3   4   0   0   0)

     celldm(1)=   1.889726  celldm(2)=   0.000000  celldm(3)=   0.000000
     celldm(4)=   0.000000  celldm(5)=   0.000000  celldm(6)=   0.000000

     crystal axes: (cart. coord. in units of alat)
               a(1) = (   6.967356   0.000000   0.000000 )  
               a(2) = (   0.000000  11.998880   0.000000 )  
               a(3) = (  -2.324723   0.000000   6.537643 )  

     reciprocal axes: (cart. coord. in units 2 pi/alat)
               b(1) = (  0.143526  0.000000  0.051037 )  
               b(2) = (  0.000000  0.083341  0.000000 )  
               b(3) = (  0.000000  0.000000  0.152960 )  


     PseudoPot. # 1 for Li read from file:
     /central/groups/SeeGroup/qe_pseudopotentials/Li.pbe-s-kjpaw_psl.1.0.0.UPF
     MD5 check sum: cc502796ee09d8b62ac346ee26e59beb
     Pseudo is Projector augmented-wave, Zval =  3.0
     Generated using &quot;atomic&quot; code by A. Dal Corso  v.6.3
     Shape of augmentation charge: PSQ
     Using radial grid of 1017 points,  4 beta functions with: 
                l(1) =   0
                l(2) =   0
                l(3) =   1
                l(4) =   1
     Q(r) pseudized with 0 coefficients 


     PseudoPot. # 2 for Er read from file:
     /central/groups/SeeGroup/qe_pseudopotentials/Er.pbe-spdn-kjpaw_psl.1.0.0.UPF
     MD5 check sum: a923254af2aef992cff3e18bc73f2922
     Pseudo is Projector augmented-wave + core cor, Zval = 11.0
     Generated using &quot;atomic&quot; code by A. Dal Corso  v.6.2.2
     Shape of augmentation charge: PSQ
     Using radial grid of 1267 points,  6 beta functions with: 
                l(1) =   0
                l(2) =   0
                l(3) =   1
                l(4) =   1
                l(5) =   2
                l(6) =   2
     Q(r) pseudized with 0 coefficients 


     PseudoPot. # 3 for Br read from file:
     /central/groups/SeeGroup/qe_pseudopotentials/Br.pbe-dn-kjpaw_psl.1.0.0.UPF
     MD5 check sum: 4ca4ebabfd6065c7bb707b2ebe99e9b3
     Pseudo is Projector augmented-wave + core cor, Zval = 17.0
     Generated using &quot;atomic&quot; code by A. Dal Corso  v.6.3
     Shape of augmentation charge: PSQ
     Using radial grid of 1213 points,  6 beta functions with: 
                l(1) =   0
                l(2) =   0
                l(3) =   1
                l(4) =   1
                l(5) =   2
                l(6) =   2
     Q(r) pseudized with 0 coefficients 


     atomic species   valence    mass     pseudopotential
        Li             3.00     6.94100     Li( 1.00)
        Er            11.00   167.25900     Er( 1.00)
        Br            17.00    79.90400     Br( 1.00)

      2 Sym. Ops. (no inversion) found



   Cartesian axes

     site n.     atom                  positions (alat units)
         1           Li  tau(   1) = (   3.4836780   9.9564306   0.0000000  )
         2           Li  tau(   2) = (   3.4836780   2.0173957   0.0000000  )
         3           Li  tau(   3) = (   2.3213165   7.8846440   3.2688215  )
         4           Li  tau(   4) = (   0.0000000   3.9569906   0.0000000  )
         5           Li  tau(   5) = (   0.0000000   8.0168357   0.0000000  )
         6           Li  tau(   6) = (  -1.1623615   1.8852040   3.2688215  )
         7           Er  tau(   7) = (   3.4836780   5.9699947   0.0000000  )
         8           Er  tau(   8) = (   0.0000000  11.9694347   0.0000000  )
         9           Br  tau(   9) = (   3.4471523   9.9581465   5.0158758  )
        10           Br  tau(  10) = (   3.5847273   1.9854607   4.9258002  )
        11           Br  tau(  11) = (   1.0579057   1.9854607   1.6118428  )
        12           Br  tau(  12) = (   1.1954807   9.9581465   1.5217672  )
        13           Br  tau(  13) = (  -0.0150075   0.0698395   4.9769442  )
        14           Br  tau(  14) = (   4.6576405   0.0698395   1.5606988  )
        15           Br  tau(  15) = (  -0.0365257   3.9587065   5.0158758  )
        16           Br  tau(  16) = (   0.1010493   7.9849007   4.9258002  )
        17           Br  tau(  17) = (   4.5415837   7.9849007   1.6118428  )
        18           Br  tau(  18) = (   4.6791587   3.9587065   1.5217672  )
        19           Br  tau(  19) = (   3.4686705   6.0692795   4.9769442  )
        20           Br  tau(  20) = (   1.1739625   6.0692795   1.5606988  )

     number of k points=   102  Fermi-Dirac smearing, width (Ry)=  0.0070

     Number of k-points >= 100: set verbosity='high' to print them.

     Dense  grid:   176197 G-vectors     FFT dimensions: (  60, 108,  60)

     Smooth grid:   126097 G-vectors     FFT dimensions: (  54,  96,  54)

     Estimated max dynamical RAM per process >     100.57 MB

     Estimated total dynamical RAM >       4.71 GB

     Check: negative core charge=   -0.000006

     Initial potential from superposition of free atoms

     starting charge  243.93496, renormalised to  244.00000
     Starting wfcs are  164 randomized atomic wfcs
     Checking if some PAW data can be deallocated... 

     total cpu time spent up to now is        8.5 secs

     Self-consistent Calculation

     iteration #  1     ecut=    40.00 Ry     beta= 0.40
     Davidson diagonalization with overlap
     ethr =  1.00E-02,  avg # of iterations =  5.0

     Threshold (ethr) on eigenvalues was too large:
     Diagonalizing with lowered threshold

     Davidson diagonalization with overlap
     ethr =  1.19E-04,  avg # of iterations =  8.5

     total cpu time spent up to now is       72.4 secs

     total energy              =   -6739.15155658 Ry
     estimated scf accuracy    <       0.30299155 Ry

     iteration #  2     ecut=    40.00 Ry     beta= 0.40
     Davidson diagonalization with overlap
     ethr =  1.24E-04,  avg # of iterations =  2.1

     total cpu time spent up to now is       92.2 secs

     total energy              =   -6739.16927537 Ry
     estimated scf accuracy    <       0.04304837 Ry

     iteration #  3     ecut=    40.00 Ry     beta= 0.40
     Davidson diagonalization with overlap
     ethr =  1.76E-05,  avg # of iterations =  9.4

     total cpu time spent up to now is      132.1 secs

     total energy              =   -6739.17538489 Ry
     estimated scf accuracy    <       0.00482227 Ry

     iteration #  4     ecut=    40.00 Ry     beta= 0.40
     Davidson diagonalization with overlap
     c_bands:  1 eigenvalues not converged
     c_bands:  1 eigenvalues not converged
     c_bands:  1 eigenvalues not converged
     c_bands:  1 eigenvalues not converged
     c_bands:  1 eigenvalues not converged
     ethr =  1.98E-06,  avg # of iterations =  7.3

     total cpu time spent up to now is      166.1 secs

     total energy              =   -6739.17628002 Ry
     estimated scf accuracy    <       0.00159459 Ry

     iteration #  5     ecut=    40.00 Ry     beta= 0.40
     Davidson diagonalization with overlap
     ethr =  6.54E-07,  avg # of iterations =  1.8

     total cpu time spent up to now is      184.1 secs

     total energy              =   -6739.17488876 Ry
     estimated scf accuracy    <       0.00088323 Ry

     iteration #  6     ecut=    40.00 Ry     beta= 0.40
     Davidson diagonalization with overlap
     ethr =  3.62E-07,  avg # of iterations =  2.0

     total cpu time spent up to now is      203.2 secs

     total energy              =   -6739.17501589 Ry
     estimated scf accuracy    <       0.00012952 Ry

     iteration #  7     ecut=    40.00 Ry     beta= 0.40
     Davidson diagonalization with overlap
     ethr =  5.31E-08,  avg # of iterations =  2.0

     total cpu time spent up to now is      221.9 secs

     total energy              =   -6739.17576586 Ry
     estimated scf accuracy    <       0.00000722 Ry

     iteration #  8     ecut=    40.00 Ry     beta= 0.40
     Davidson diagonalization with overlap
     ethr =  2.96E-09,  avg # of iterations =  2.0

     total cpu time spent up to now is      241.7 secs

     total energy              =   -6739.17635147 Ry
     estimated scf accuracy    <       0.00000141 Ry

     iteration #  9     ecut=    40.00 Ry     beta= 0.40
     Davidson diagonalization with overlap
     ethr =  5.76E-10,  avg # of iterations =  3.0

     total cpu time spent up to now is      263.9 secs

     total energy              =   -6739.17650881 Ry
     estimated scf accuracy    <       0.00000189 Ry

     iteration # 10     ecut=    40.00 Ry     beta= 0.40
     Davidson diagonalization with overlap
     ethr =  5.76E-10,  avg # of iterations =  3.0

     total cpu time spent up to now is      284.8 secs

     total energy              =   -6739.17660703 Ry
     estimated scf accuracy    <       0.00000691 Ry

     iteration # 11     ecut=    40.00 Ry     beta= 0.40
     Davidson diagonalization with overlap
     ethr =  5.76E-10,  avg # of iterations =  3.0

     total cpu time spent up to now is      306.3 secs

     total energy              =   -6739.17661779 Ry
     estimated scf accuracy    <       0.00001262 Ry

     iteration # 12     ecut=    40.00 Ry     beta= 0.40
     Davidson diagonalization with overlap
     ethr =  5.76E-10,  avg # of iterations =  3.0

     total cpu time spent up to now is      326.7 secs

     total energy              =   -6739.17659541 Ry
     estimated scf accuracy    <       0.00002819 Ry

     iteration # 13     ecut=    40.00 Ry     beta= 0.40
     Davidson diagonalization with overlap
     ethr =  5.76E-10,  avg # of iterations =  4.0

     total cpu time spent up to now is      349.7 secs

     total energy              =   -6739.17654593 Ry
     estimated scf accuracy    <       0.00006904 Ry

     iteration # 14     ecut=    40.00 Ry     beta= 0.40
     Davidson diagonalization with overlap
     ethr =  5.76E-10,  avg # of iterations =  4.0

     total cpu time spent up to now is      373.3 secs

     total energy              =   -6739.17633588 Ry
     estimated scf accuracy    <       0.00013965 Ry

     iteration # 15     ecut=    40.00 Ry     beta= 0.40
     Davidson diagonalization with overlap
     ethr =  5.76E-10,  avg # of iterations =  4.0

     total cpu time spent up to now is      397.3 secs

     total energy              =   -6739.17585812 Ry
     estimated scf accuracy    <       0.00032636 Ry

     iteration # 16     ecut=    40.00 Ry     beta= 0.40
     Davidson diagonalization with overlap
     ethr =  5.76E-10,  avg # of iterations =  5.0

     total cpu time spent up to now is      423.9 secs

     total energy              =   -6739.17488140 Ry
     estimated scf accuracy    <       0.00070844 Ry

     iteration # 17     ecut=    40.00 Ry     beta= 0.40
     Davidson diagonalization with overlap
     ethr =  5.76E-10,  avg # of iterations =  5.1

     total cpu time spent up to now is      452.5 secs

     total energy              =   -6739.17314986 Ry
     estimated scf accuracy    <       0.00135468 Ry

     iteration # 18     ecut=    40.00 Ry     beta= 0.40
     Davidson diagonalization with overlap
     ethr =  5.76E-10,  avg # of iterations =  5.0

     total cpu time spent up to now is      481.7 secs

     total energy              =   -6739.17015774 Ry
     estimated scf accuracy    <       0.00223048 Ry

     iteration # 19     ecut=    40.00 Ry     beta= 0.40
     Davidson diagonalization with overlap
     ethr =  5.76E-10,  avg # of iterations =  5.0

     total cpu time spent up to now is      512.0 secs

     total energy              =   -6739.16727568 Ry
     estimated scf accuracy    <       0.00334758 Ry

     iteration # 20     ecut=    40.00 Ry     beta= 0.40
     Davidson diagonalization with overlap
     ethr =  5.76E-10,  avg # of iterations =  4.5

     total cpu time spent up to now is      541.1 secs

     total energy              =   -6739.16396986 Ry
     estimated scf accuracy    <       0.00427823 Ry

     iteration # 21     ecut=    40.00 Ry     beta= 0.40
     Davidson diagonalization with overlap
     ethr =  5.76E-10,  avg # of iterations =  4.2

     total cpu time spent up to now is      569.4 secs

     total energy              =   -6739.16037839 Ry
     estimated scf accuracy    <       0.00526617 Ry

     iteration # 22     ecut=    40.00 Ry     beta= 0.40
     Davidson diagonalization with overlap
     c_bands:  1 eigenvalues not converged
     ethr =  5.76E-10,  avg # of iterations =  5.2

     total cpu time spent up to now is      600.1 secs

     total energy              =   -6739.15724123 Ry
     estimated scf accuracy    <       0.00630720 Ry

     iteration # 23     ecut=    40.00 Ry     beta= 0.40
     Davidson diagonalization with overlap
     ethr =  5.76E-10,  avg # of iterations =  4.9

     total cpu time spent up to now is      629.6 secs

     total energy              =   -6739.15424024 Ry
     estimated scf accuracy    <       0.00716279 Ry

     iteration # 24     ecut=    40.00 Ry     beta= 0.40
     Davidson diagonalization with overlap
     ethr =  5.76E-10,  avg # of iterations =  4.0

     total cpu time spent up to now is      656.5 secs

     total energy              =   -6739.15078512 Ry
     estimated scf accuracy    <       0.00788243 Ry

     iteration # 25     ecut=    40.00 Ry     beta= 0.40
     Davidson diagonalization with overlap
     ethr =  5.76E-10,  avg # of iterations =  4.9

     negative rho (up, down):  3.990E-06 0.000E+00

     total cpu time spent up to now is      685.9 secs

     total energy              =   -6739.14733471 Ry
     estimated scf accuracy    <       0.00860882 Ry

     iteration # 26     ecut=    40.00 Ry     beta= 0.40
     Davidson diagonalization with overlap
     ethr =  5.76E-10,  avg # of iterations =  4.0

     negative rho (up, down):  9.056E-07 0.000E+00

     total cpu time spent up to now is      713.9 secs

     total energy              =   -6739.14840519 Ry
     estimated scf accuracy    <       0.00934316 Ry

     iteration # 27     ecut=    40.00 Ry     beta= 0.40
     Davidson diagonalization with overlap
     ethr =  5.76E-10,  avg # of iterations =  4.8

     negative rho (up, down):  1.569E-06 0.000E+00

     total cpu time spent up to now is      745.9 secs

     total energy              =   -6739.14833505 Ry
     estimated scf accuracy    <       0.00891324 Ry

     iteration # 28     ecut=    40.00 Ry     beta= 0.40
     Davidson diagonalization with overlap
     ethr =  5.76E-10,  avg # of iterations =  4.0

     negative rho (up, down):  9.883E-07 0.000E+00

     total cpu time spent up to now is      774.0 secs

     total energy              =   -6739.15301976 Ry
     estimated scf accuracy    <       0.00890631 Ry

     iteration # 29     ecut=    40.00 Ry     beta= 0.40
     Davidson diagonalization with overlap
     ethr =  5.76E-10,  avg # of iterations =  4.0

     total cpu time spent up to now is      801.9 secs

     total energy              =   -6739.16169792 Ry
     estimated scf accuracy    <       0.00753392 Ry

     iteration # 30     ecut=    40.00 Ry     beta= 0.40
     Davidson diagonalization with overlap
     ethr =  5.76E-10,  avg # of iterations =  5.7

     total cpu time spent up to now is      839.3 secs

     total energy              =   -6739.16210525 Ry
     estimated scf accuracy    <       0.00523173 Ry

     iteration # 31     ecut=    40.00 Ry     beta= 0.40
     Davidson diagonalization with overlap
     ethr =  5.76E-10,  avg # of iterations =  4.0

     total cpu time spent up to now is      869.5 secs

     total energy              =   -6739.16241274 Ry
     estimated scf accuracy    <       0.00506574 Ry

     iteration # 32     ecut=    40.00 Ry     beta= 0.40
     Davidson diagonalization with overlap
     ethr =  5.76E-10,  avg # of iterations =  4.0

     total cpu time spent up to now is      897.8 secs

     total energy              =   -6739.16336961 Ry
     estimated scf accuracy    <       0.00489923 Ry

     iteration # 33     ecut=    40.00 Ry     beta= 0.40
     Davidson diagonalization with overlap
     ethr =  5.76E-10,  avg # of iterations =  5.0

     total cpu time spent up to now is      931.2 secs

     total energy              =   -6739.16870732 Ry
     estimated scf accuracy    <       0.00435065 Ry

     iteration # 34     ecut=    40.00 Ry     beta= 0.40
     Davidson diagonalization with overlap
     ethr =  5.76E-10,  avg # of iterations =  5.0

     total cpu time spent up to now is      967.3 secs

     total energy              =   -6739.16440016 Ry
     estimated scf accuracy    <       0.00344427 Ry

     iteration # 35     ecut=    40.00 Ry     beta= 0.40
     Davidson diagonalization with overlap
     ethr =  5.76E-10,  avg # of iterations =  5.1

     total cpu time spent up to now is     1003.4 secs

     total energy              =   -6739.17709033 Ry
     estimated scf accuracy    <       0.00404572 Ry

     iteration # 36     ecut=    40.00 Ry     beta= 0.40
     Davidson diagonalization with overlap
     ethr =  5.76E-10,  avg # of iterations =  5.2

     total cpu time spent up to now is     1039.5 secs

     total energy              =   -6739.18089514 Ry
     estimated scf accuracy    <       0.00094717 Ry

     iteration # 37     ecut=    40.00 Ry     beta= 0.40
     Davidson diagonalization with overlap
     ethr =  5.76E-10,  avg # of iterations =  5.0

     total cpu time spent up to now is     1074.2 secs

     total energy              =   -6739.18154287 Ry
     estimated scf accuracy    <       0.00019844 Ry

     iteration # 38     ecut=    40.00 Ry     beta= 0.40
     Davidson diagonalization with overlap
     ethr =  5.76E-10,  avg # of iterations =  4.0

     total cpu time spent up to now is     1101.7 secs

     total energy              =   -6739.18168858 Ry
     estimated scf accuracy    <       0.00002935 Ry

     iteration # 39     ecut=    40.00 Ry     beta= 0.40
     Davidson diagonalization with overlap
     ethr =  5.76E-10,  avg # of iterations =  4.0

     total cpu time spent up to now is     1127.8 secs

     total energy              =   -6739.18173087 Ry
     estimated scf accuracy    <       0.00001156 Ry

     iteration # 40     ecut=    40.00 Ry     beta= 0.40
     Davidson diagonalization with overlap
     ethr =  5.76E-10,  avg # of iterations =  3.0

     total cpu time spent up to now is     1149.5 secs

     total energy              =   -6739.18177415 Ry
     estimated scf accuracy    <       0.00000330 Ry

     iteration # 41     ecut=    40.00 Ry     beta= 0.40
     Davidson diagonalization with overlap
     ethr =  5.76E-10,  avg # of iterations =  3.0

     total cpu time spent up to now is     1170.6 secs

     total energy              =   -6739.18181412 Ry
     estimated scf accuracy    <       0.00000162 Ry

     iteration # 42     ecut=    40.00 Ry     beta= 0.40
     Davidson diagonalization with overlap
     ethr =  5.76E-10,  avg # of iterations =  3.0

     total cpu time spent up to now is     1192.2 secs

     total energy              =   -6739.18182206 Ry
     estimated scf accuracy    <       0.00000127 Ry

     iteration # 43     ecut=    40.00 Ry     beta= 0.40
     Davidson diagonalization with overlap
     ethr =  5.20E-10,  avg # of iterations =  3.0

     total cpu time spent up to now is     1213.0 secs

     total energy              =   -6739.18186983 Ry
     estimated scf accuracy    <       0.00000023 Ry

     iteration # 44     ecut=    40.00 Ry     beta= 0.40
     Davidson diagonalization with overlap
     ethr =  9.33E-11,  avg # of iterations =  4.0

     total cpu time spent up to now is     1237.5 secs

     total energy              =   -6739.18188707 Ry
     estimated scf accuracy    <       0.00000108 Ry

     iteration # 45     ecut=    40.00 Ry     beta= 0.40
     Davidson diagonalization with overlap
     ethr =  9.33E-11,  avg # of iterations =  3.0

     total cpu time spent up to now is     1259.1 secs

     total energy              =   -6739.18190037 Ry
     estimated scf accuracy    <       0.00000108 Ry

     iteration # 46     ecut=    40.00 Ry     beta= 0.40
     Davidson diagonalization with overlap
     ethr =  9.33E-11,  avg # of iterations =  3.0

     total cpu time spent up to now is     1280.5 secs

     total energy              =   -6739.18191161 Ry
     estimated scf accuracy    <       0.00000124 Ry

     iteration # 47     ecut=    40.00 Ry     beta= 0.40
     Davidson diagonalization with overlap
     ethr =  9.33E-11,  avg # of iterations =  4.0

     total cpu time spent up to now is     1305.1 secs

     total energy              =   -6739.18191884 Ry
     estimated scf accuracy    <       0.00000845 Ry

     iteration # 48     ecut=    40.00 Ry     beta= 0.40
     Davidson diagonalization with overlap
     ethr =  9.33E-11,  avg # of iterations =  4.0

     total cpu time spent up to now is     1328.1 secs

     total energy              =   -6739.18192919 Ry
     estimated scf accuracy    <       0.00000992 Ry

     iteration # 49     ecut=    40.00 Ry     beta= 0.40
     Davidson diagonalization with overlap
     ethr =  9.33E-11,  avg # of iterations =  3.0

     total cpu time spent up to now is     1349.1 secs

     total energy              =   -6739.18192747 Ry
     estimated scf accuracy    <       0.00000620 Ry

     iteration # 50     ecut=    40.00 Ry     beta= 0.40
     Davidson diagonalization with overlap
     ethr =  9.33E-11,  avg # of iterations =  4.0

     total cpu time spent up to now is     1372.3 secs

     total energy              =   -6739.18191753 Ry
     estimated scf accuracy    <       0.00001053 Ry

     iteration # 51     ecut=    40.00 Ry     beta= 0.40
     Davidson diagonalization with overlap
     ethr =  9.33E-11,  avg # of iterations =  4.0

     total cpu time spent up to now is     1395.5 secs

     total energy              =   -6739.18189388 Ry
     estimated scf accuracy    <       0.00001761 Ry

     iteration # 52     ecut=    40.00 Ry     beta= 0.40
     Davidson diagonalization with overlap
     ethr =  9.33E-11,  avg # of iterations =  4.0

     total cpu time spent up to now is     1418.8 secs

     total energy              =   -6739.18186546 Ry
     estimated scf accuracy    <       0.00002904 Ry

     iteration # 53     ecut=    40.00 Ry     beta= 0.40
     Davidson diagonalization with overlap
     ethr =  9.33E-11,  avg # of iterations =  4.0

     total cpu time spent up to now is     1442.0 secs

     total energy              =   -6739.18187561 Ry
     estimated scf accuracy    <       0.00004083 Ry

     iteration # 54     ecut=    40.00 Ry     beta= 0.40
     Davidson diagonalization with overlap
     ethr =  9.33E-11,  avg # of iterations =  4.0

     total cpu time spent up to now is     1465.1 secs

     total energy              =   -6739.18177903 Ry
     estimated scf accuracy    <       0.00003706 Ry

     iteration # 55     ecut=    40.00 Ry     beta= 0.40
     Davidson diagonalization with overlap
     ethr =  9.33E-11,  avg # of iterations =  4.0

     total cpu time spent up to now is     1489.1 secs

     total energy              =   -6739.18168459 Ry
     estimated scf accuracy    <       0.00007044 Ry

     iteration # 56     ecut=    40.00 Ry     beta= 0.40
     Davidson diagonalization with overlap
     ethr =  9.33E-11,  avg # of iterations =  4.0

     total cpu time spent up to now is     1512.7 secs

     total energy              =   -6739.18153289 Ry
     estimated scf accuracy    <       0.00010257 Ry

     iteration # 57     ecut=    40.00 Ry     beta= 0.40
     Davidson diagonalization with overlap
     ethr =  9.33E-11,  avg # of iterations =  4.0

     total cpu time spent up to now is     1536.8 secs

     total energy              =   -6739.18125062 Ry
     estimated scf accuracy    <       0.00015182 Ry

     iteration # 58     ecut=    40.00 Ry     beta= 0.40
     Davidson diagonalization with overlap
     ethr =  9.33E-11,  avg # of iterations =  4.9

     total cpu time spent up to now is     1563.6 secs

     total energy              =   -6739.18099752 Ry
     estimated scf accuracy    <       0.00024305 Ry

     iteration # 59     ecut=    40.00 Ry     beta= 0.40
     Davidson diagonalization with overlap
     ethr =  9.33E-11,  avg # of iterations =  5.0

     total cpu time spent up to now is     1590.2 secs

     total energy              =   -6739.18042134 Ry
     estimated scf accuracy    <       0.00032440 Ry

     iteration # 60     ecut=    40.00 Ry     beta= 0.40
     Davidson diagonalization with overlap
     ethr =  9.33E-11,  avg # of iterations =  5.1

     total cpu time spent up to now is     1618.1 secs

     total energy              =   -6739.17960760 Ry
     estimated scf accuracy    <       0.00051174 Ry

     iteration # 61     ecut=    40.00 Ry     beta= 0.40
     Davidson diagonalization with overlap
     ethr =  9.33E-11,  avg # of iterations =  5.0

     total cpu time spent up to now is     1645.7 secs

     total energy              =   -6739.17841244 Ry
     estimated scf accuracy    <       0.00078810 Ry

     iteration # 62     ecut=    40.00 Ry     beta= 0.40
     Davidson diagonalization with overlap
     ethr =  9.33E-11,  avg # of iterations =  5.0

     total cpu time spent up to now is     1673.5 secs

     total energy              =   -6739.17585189 Ry
     estimated scf accuracy    <       0.00121287 Ry

     iteration # 63     ecut=    40.00 Ry     beta= 0.40
     Davidson diagonalization with overlap
     ethr =  9.33E-11,  avg # of iterations =  5.0

     total cpu time spent up to now is     1701.7 secs

     total energy              =   -6739.17212456 Ry
     estimated scf accuracy    <       0.00216022 Ry

     iteration # 64     ecut=    40.00 Ry     beta= 0.40
     Davidson diagonalization with overlap
     ethr =  9.33E-11,  avg # of iterations =  5.0

     total cpu time spent up to now is     1731.3 secs

     total energy              =   -6739.16598618 Ry
     estimated scf accuracy    <       0.00364760 Ry

     iteration # 65     ecut=    40.00 Ry     beta= 0.40
     Davidson diagonalization with overlap
     ethr =  9.33E-11,  avg # of iterations =  5.0

     negative rho (up, down):  1.215E-06 0.000E+00

     total cpu time spent up to now is     1760.4 secs

     total energy              =   -6739.15823695 Ry
     estimated scf accuracy    <       0.00614703 Ry

     iteration # 66     ecut=    40.00 Ry     beta= 0.40
     Davidson diagonalization with overlap
     ethr =  9.33E-11,  avg # of iterations =  5.0

     negative rho (up, down):  2.608E-06 0.000E+00

     total cpu time spent up to now is     1789.9 secs

     total energy              =   -6739.15031237 Ry
     estimated scf accuracy    <       0.00916143 Ry

     iteration # 67     ecut=    40.00 Ry     beta= 0.40
     Davidson diagonalization with overlap
     ethr =  9.33E-11,  avg # of iterations =  5.0

     negative rho (up, down):  4.014E-06 0.000E+00

     total cpu time spent up to now is     1821.5 secs

     total energy              =   -6739.14301505 Ry
     estimated scf accuracy    <       0.01204585 Ry

     iteration # 68     ecut=    40.00 Ry     beta= 0.40
     Davidson diagonalization with overlap
     ethr =  9.33E-11,  avg # of iterations =  5.3

     negative rho (up, down):  4.953E-06 0.000E+00

     total cpu time spent up to now is     1854.5 secs

     total energy              =   -6739.13886970 Ry
     estimated scf accuracy    <       0.01452122 Ry

     iteration # 69     ecut=    40.00 Ry     beta= 0.40
     Davidson diagonalization with overlap
     ethr =  9.33E-11,  avg # of iterations =  5.3

     negative rho (up, down):  5.533E-06 0.000E+00

     total cpu time spent up to now is     1886.1 secs

     total energy              =   -6739.13612265 Ry
     estimated scf accuracy    <       0.01546263 Ry

     iteration # 70     ecut=    40.00 Ry     beta= 0.40
     Davidson diagonalization with overlap
     ethr =  9.33E-11,  avg # of iterations =  5.4

     negative rho (up, down):  6.104E-06 0.000E+00

     total cpu time spent up to now is     1917.7 secs

     total energy              =   -6739.13303465 Ry
     estimated scf accuracy    <       0.01581625 Ry

     iteration # 71     ecut=    40.00 Ry     beta= 0.40
     Davidson diagonalization with overlap
     ethr =  9.33E-11,  avg # of iterations =  6.0

     negative rho (up, down):  6.595E-06 0.000E+00

     total cpu time spent up to now is     1950.4 secs

     total energy              =   -6739.12971430 Ry
     estimated scf accuracy    <       0.01651453 Ry

     iteration # 72     ecut=    40.00 Ry     beta= 0.40
     Davidson diagonalization with overlap
     ethr =  9.33E-11,  avg # of iterations =  6.3

     negative rho (up, down):  6.080E-06 0.000E+00

     total cpu time spent up to now is     1983.7 secs

     total energy              =   -6739.12921557 Ry
     estimated scf accuracy    <       0.01756628 Ry

     iteration # 73     ecut=    40.00 Ry     beta= 0.40
     Davidson diagonalization with overlap
     ethr =  9.33E-11,  avg # of iterations =  6.0

     negative rho (up, down):  3.909E-06 0.000E+00

     total cpu time spent up to now is     2015.0 secs

     total energy              =   -6739.13533962 Ry
     estimated scf accuracy    <       0.01711080 Ry

     iteration # 74     ecut=    40.00 Ry     beta= 0.40
     Davidson diagonalization with overlap
     ethr =  9.33E-11,  avg # of iterations =  6.0

     negative rho (up, down):  2.906E-06 0.000E+00

     total cpu time spent up to now is     2051.8 secs

     total energy              =   -6739.13796498 Ry
     estimated scf accuracy    <       0.01365125 Ry

     iteration # 75     ecut=    40.00 Ry     beta= 0.40
     Davidson diagonalization with overlap
     ethr =  9.33E-11,  avg # of iterations =  6.0

     total cpu time spent up to now is     2088.3 secs

     total energy              =   -6739.15547998 Ry
     estimated scf accuracy    <       0.01221750 Ry

     iteration # 76     ecut=    40.00 Ry     beta= 0.40
     Davidson diagonalization with overlap
     ethr =  9.33E-11,  avg # of iterations =  6.1

     total cpu time spent up to now is     2126.6 secs

     total energy              =   -6739.15757135 Ry
     estimated scf accuracy    <       0.00646666 Ry

     iteration # 77     ecut=    40.00 Ry     beta= 0.40
     Davidson diagonalization with overlap
     ethr =  9.33E-11,  avg # of iterations =  5.3

     total cpu time spent up to now is     2161.7 secs

     total energy              =   -6739.16879810 Ry
     estimated scf accuracy    <       0.00565297 Ry

     iteration # 78     ecut=    40.00 Ry     beta= 0.40
     Davidson diagonalization with overlap
     ethr =  9.33E-11,  avg # of iterations =  5.6

     total cpu time spent up to now is     2199.7 secs

     total energy              =   -6739.17261536 Ry
     estimated scf accuracy    <       0.00278560 Ry

     iteration # 79     ecut=    40.00 Ry     beta= 0.40
     Davidson diagonalization with overlap
     ethr =  9.33E-11,  avg # of iterations =  5.1

     total cpu time spent up to now is     2234.7 secs

     total energy              =   -6739.16577348 Ry
     estimated scf accuracy    <       0.00233642 Ry

     iteration # 80     ecut=    40.00 Ry     beta= 0.40
     Davidson diagonalization with overlap
     ethr =  9.33E-11,  avg # of iterations =  6.1

     total cpu time spent up to now is     2272.1 secs

     total energy              =   -6739.15244320 Ry
     estimated scf accuracy    <       0.00350023 Ry

     iteration # 81     ecut=    40.00 Ry     beta= 0.40
     Davidson diagonalization with overlap
     ethr =  9.33E-11,  avg # of iterations =  6.1

     total cpu time spent up to now is     2313.9 secs

     total energy              =   -6739.15379152 Ry
     estimated scf accuracy    <       0.00858334 Ry

     iteration # 82     ecut=    40.00 Ry     beta= 0.40
     Davidson diagonalization with overlap
     ethr =  9.33E-11,  avg # of iterations =  6.0

     total cpu time spent up to now is     2355.5 secs

     total energy              =   -6739.16864415 Ry
     estimated scf accuracy    <       0.00837902 Ry

     iteration # 83     ecut=    40.00 Ry     beta= 0.40
     Davidson diagonalization with overlap
     ethr =  9.33E-11,  avg # of iterations =  5.7

     total cpu time spent up to now is     2392.9 secs

     total energy              =   -6739.17113683 Ry
     estimated scf accuracy    <       0.00262287 Ry

     iteration # 84     ecut=    40.00 Ry     beta= 0.40
     Davidson diagonalization with overlap
     ethr =  9.33E-11,  avg # of iterations =  6.0

     total cpu time spent up to now is     2431.1 secs

     total energy              =   -6739.17562405 Ry
     estimated scf accuracy    <       0.00129746 Ry

     iteration # 85     ecut=    40.00 Ry     beta= 0.40
     Davidson diagonalization with overlap
     ethr =  9.33E-11,  avg # of iterations =  5.0

     total cpu time spent up to now is     2466.0 secs

     total energy              =   -6739.17645942 Ry
     estimated scf accuracy    <       0.00044156 Ry

     iteration # 86     ecut=    40.00 Ry     beta= 0.40
     Davidson diagonalization with overlap
     ethr =  9.33E-11,  avg # of iterations =  5.0

     total cpu time spent up to now is     2499.1 secs

     total energy              =   -6739.17679259 Ry
     estimated scf accuracy    <       0.00002881 Ry

     iteration # 87     ecut=    40.00 Ry     beta= 0.40
     Davidson diagonalization with overlap
     ethr =  9.33E-11,  avg # of iterations =  4.0

     total cpu time spent up to now is     2525.3 secs

     total energy              =   -6739.17681009 Ry
     estimated scf accuracy    <       0.00000271 Ry

     iteration # 88     ecut=    40.00 Ry     beta= 0.40
     Davidson diagonalization with overlap
     ethr =  9.33E-11,  avg # of iterations =  3.0

     total cpu time spent up to now is     2547.0 secs

     total energy              =   -6739.17682630 Ry
     estimated scf accuracy    <       0.00000037 Ry

     iteration # 89     ecut=    40.00 Ry     beta= 0.40
     Davidson diagonalization with overlap
     ethr =  9.33E-11,  avg # of iterations =  3.5

     total cpu time spent up to now is     2569.8 secs

     total energy              =   -6739.17685238 Ry
     estimated scf accuracy    <       0.00000035 Ry

     iteration # 90     ecut=    40.00 Ry     beta= 0.40
     Davidson diagonalization with overlap
     ethr =  9.33E-11,  avg # of iterations =  4.0

     total cpu time spent up to now is     2592.4 secs

     total energy              =   -6739.17689201 Ry
     estimated scf accuracy    <       0.00000150 Ry

     iteration # 91     ecut=    40.00 Ry     beta= 0.40
     Davidson diagonalization with overlap
     ethr =  9.33E-11,  avg # of iterations =  4.0

     total cpu time spent up to now is     2615.3 secs

     total energy              =   -6739.17693372 Ry
     estimated scf accuracy    <       0.00001470 Ry

     iteration # 92     ecut=    40.00 Ry     beta= 0.40
     Davidson diagonalization with overlap
     ethr =  9.33E-11,  avg # of iterations =  4.0

     total cpu time spent up to now is     2637.9 secs

     total energy              =   -6739.17696913 Ry
     estimated scf accuracy    <       0.00002759 Ry

     iteration # 93     ecut=    40.00 Ry     beta= 0.40
     Davidson diagonalization with overlap
     ethr =  9.33E-11,  avg # of iterations =  5.0

     total cpu time spent up to now is     2662.6 secs

     total energy              =   -6739.17686139 Ry
     estimated scf accuracy    <       0.00005909 Ry

     iteration # 94     ecut=    40.00 Ry     beta= 0.40
     Davidson diagonalization with overlap
     ethr =  9.33E-11,  avg # of iterations =  5.0

     total cpu time spent up to now is     2688.5 secs

     total energy              =   -6739.17663695 Ry
     estimated scf accuracy    <       0.00019943 Ry

     iteration # 95     ecut=    40.00 Ry     beta= 0.40
     Davidson diagonalization with overlap
     ethr =  9.33E-11,  avg # of iterations =  5.0

     total cpu time spent up to now is     2715.0 secs

     total energy              =   -6739.17603835 Ry
     estimated scf accuracy    <       0.00044547 Ry

     iteration # 96     ecut=    40.00 Ry     beta= 0.40
     Davidson diagonalization with overlap
     ethr =  9.33E-11,  avg # of iterations =  5.0

     total cpu time spent up to now is     2743.3 secs

     total energy              =   -6739.17484641 Ry
     estimated scf accuracy    <       0.00086169 Ry

     iteration # 97     ecut=    40.00 Ry     beta= 0.40
     Davidson diagonalization with overlap
     ethr =  9.33E-11,  avg # of iterations =  5.0

     total cpu time spent up to now is     2771.6 secs

     total energy              =   -6739.17306627 Ry
     estimated scf accuracy    <       0.00144569 Ry

     iteration # 98     ecut=    40.00 Ry     beta= 0.40
     Davidson diagonalization with overlap
     ethr =  9.33E-11,  avg # of iterations =  5.0

     total cpu time spent up to now is     2799.6 secs

     total energy              =   -6739.17101215 Ry
     estimated scf accuracy    <       0.00210396 Ry

     iteration # 99     ecut=    40.00 Ry     beta= 0.40
     Davidson diagonalization with overlap
     ethr =  9.33E-11,  avg # of iterations =  5.0

     total cpu time spent up to now is     2827.6 secs

     total energy              =   -6739.16861627 Ry
     estimated scf accuracy    <       0.00269011 Ry

     iteration #100     ecut=    40.00 Ry     beta= 0.40
     Davidson diagonalization with overlap
     ethr =  9.33E-11,  avg # of iterations =  5.0

     total cpu time spent up to now is     2855.8 secs

     total energy              =   -6739.16621202 Ry
     estimated scf accuracy    <       0.00330834 Ry

     End of self-consistent calculation

     convergence NOT achieved after 100 iterations: stopping

     Writing output data file ./pwscf.save/
 
     init_run     :      7.65s CPU      7.99s WALL (       1 calls)
     electrons    :   2761.46s CPU   2847.73s WALL (       1 calls)

     Called by init_run:
     wfcinit      :      6.49s CPU      6.62s WALL (       1 calls)
     potinit      :      0.35s CPU      0.37s WALL (       1 calls)
     hinit0       :      0.25s CPU      0.43s WALL (       1 calls)

     Called by electrons:
     c_bands      :   2530.69s CPU   2611.80s WALL (     101 calls)
     sum_band     :    217.32s CPU    221.90s WALL (     101 calls)
     v_of_rho     :      0.92s CPU      0.94s WALL (     101 calls)
     newd         :      3.23s CPU      3.26s WALL (     101 calls)
     PAW_pot      :      8.71s CPU      8.76s WALL (     101 calls)
     mix_rho      :      0.39s CPU      0.41s WALL (     101 calls)

     Called by c_bands:
     init_us_2    :     14.46s CPU     14.64s WALL (   10353 calls)
     cegterg      :   2333.04s CPU   2412.13s WALL (    5151 calls)

     Called by *egterg:
     cdiaghg      :    775.52s CPU    788.78s WALL (   28712 calls)
     h_psi        :   1037.27s CPU   1065.56s WALL (   28814 calls)
     s_psi        :     85.24s CPU     86.84s WALL (   28814 calls)
     g_psi        :      3.76s CPU      3.83s WALL (   23612 calls)

     Called by h_psi:
     h_psi:calbec :    100.18s CPU    100.85s WALL (   28814 calls)
     vloc_psi     :    841.89s CPU    864.56s WALL (   28814 calls)
     add_vuspsi   :     88.44s CPU     88.83s WALL (   28814 calls)

     General routines
     calbec       :    131.32s CPU    132.18s WALL (   33965 calls)
     fft          :      0.59s CPU      0.78s WALL (    1314 calls)
     ffts         :      0.12s CPU      0.13s WALL (     202 calls)
     fftw         :    919.28s CPU    943.78s WALL ( 5194408 calls)
     interpolate  :      0.14s CPU      0.14s WALL (     101 calls)
     davcio       :      0.01s CPU      1.83s WALL (      69 calls)
 
     Parallel routines
     fft_scatt_xy :    107.44s CPU    110.07s WALL ( 5195924 calls)
     fft_scatt_yz :    337.74s CPU    346.49s WALL ( 5195924 calls)
 
     PWSCF        :  46m 9.92s CPU  47m38.36s WALL

 
   This run was terminated on:  18:49:48   2Aug2021            

=------------------------------------------------------------------------------=
   JOB DONE.
=------------------------------------------------------------------------------=
