
     Program PWSCF v.6.7MaX starts on  3Aug2021 at 12:29:53 

     This program is part of the open-source Quantum ESPRESSO suite
     for quantum simulation of materials; please cite
         "P. Giannozzi et al., J. Phys.:Condens. Matter 21 395502 (2009);
         "P. Giannozzi et al., J. Phys.:Condens. Matter 29 465901 (2017);
          URL http://www.quantum-espresso.org", 
     in publications or presentations arising from this work. More details at
     http://www.quantum-espresso.org/quote

     Parallel version (MPI), running on    48 processors

     MPI processes distributed on     2 nodes
     K-points division:     npool     =       2
     R & G space division:  proc/nbgrp/npool/nimage =      24
     Waiting for input...
     Reading input from standard input
Warning: card &CELL ignored
Warning: card CELL_DYNAMICS             = 'BFGS', ignored
Warning: card PRESS                     = '0.0', ignored
Warning: card PRESS_CONV_THR            = '0.5', ignored
Warning: card / ignored
     Message from routine read_cards :
     DEPRECATED: no units specified in CELL_PARAMETERS card

     Current dimensions of program PWSCF are:
     Max number of different atomic species (ntypx) = 10
     Max number of k-points (npk) =  40000
     Max angular momentum in pseudopotentials (lmaxx) =  3
     Message from routine cell_base_init:
     DEPRECATED: use true lattice parameter, not A to a.u. conversion factor
 end of file reached, closing tag not found
     file Er.pbe-spdn-kjpaw_psl.1.0.0.UPF: wavefunction(s)  6S 5D renormalized
     file Br.pbe-dn-kjpaw_psl.1.0.0.UPF: wavefunction(s)  4S 4P 3D renormalized

     Subspace diagonalization in iterative solution of the eigenvalue problem:
     a serial algorithm will be used

     Found symmetry operation: I + ( -0.5000 -0.5000  0.0000)
     This is a supercell, fractional translations are disabled
     Message from routine setup:
     using ibrav=0 with symmetry is DISCOURAGED, use correct ibrav instead
 
     Parallelization info
     --------------------
     sticks:   dense  smooth     PW     G-vecs:    dense   smooth      PW
     Min         198     158     45                 7341     5253     801
     Max         199     159     46                 7343     5255     804
     Sum        4753    3799   1089               176197   126097   19255
 


     bravais-lattice index     =            0
     lattice parameter (alat)  =       1.8897  a.u.
     unit-cell volume          =    3688.3023 (a.u.)^3
     number of atoms/cell      =           20
     number of atomic types    =            3
     number of electrons       =       244.00
     number of Kohn-Sham states=          146
     kinetic-energy cutoff     =      40.0000  Ry
     charge density cutoff     =     200.0000  Ry
     scf convergence threshold =      1.0E-08
     mixing beta               =       0.4000
     number of iterations used =            8  plain     mixing
     Exchange-correlation= SLA  PW   PBX  PBC
                           (   1   4   3   4   0   0   0)

     celldm(1)=   1.889726  celldm(2)=   0.000000  celldm(3)=   0.000000
     celldm(4)=   0.000000  celldm(5)=   0.000000  celldm(6)=   0.000000

     crystal axes: (cart. coord. in units of alat)
               a(1) = (   6.967356   0.000000   0.000000 )  
               a(2) = (   0.000000  11.998880   0.000000 )  
               a(3) = (  -2.324723   0.000000   6.537643 )  

     reciprocal axes: (cart. coord. in units 2 pi/alat)
               b(1) = (  0.143526  0.000000  0.051037 )  
               b(2) = (  0.000000  0.083341  0.000000 )  
               b(3) = (  0.000000  0.000000  0.152960 )  


     PseudoPot. # 1 for Li read from file:
     /central/groups/SeeGroup/qe_pseudopotentials/Li.pbe-s-kjpaw_psl.1.0.0.UPF
     MD5 check sum: cc502796ee09d8b62ac346ee26e59beb
     Pseudo is Projector augmented-wave, Zval =  3.0
     Generated using &quot;atomic&quot; code by A. Dal Corso  v.6.3
     Shape of augmentation charge: PSQ
     Using radial grid of 1017 points,  4 beta functions with: 
                l(1) =   0
                l(2) =   0
                l(3) =   1
                l(4) =   1
     Q(r) pseudized with 0 coefficients 


     PseudoPot. # 2 for Er read from file:
     /central/groups/SeeGroup/qe_pseudopotentials/Er.pbe-spdn-kjpaw_psl.1.0.0.UPF
     MD5 check sum: a923254af2aef992cff3e18bc73f2922
     Pseudo is Projector augmented-wave + core cor, Zval = 11.0
     Generated using &quot;atomic&quot; code by A. Dal Corso  v.6.2.2
     Shape of augmentation charge: PSQ
     Using radial grid of 1267 points,  6 beta functions with: 
                l(1) =   0
                l(2) =   0
                l(3) =   1
                l(4) =   1
                l(5) =   2
                l(6) =   2
     Q(r) pseudized with 0 coefficients 


     PseudoPot. # 3 for Br read from file:
     /central/groups/SeeGroup/qe_pseudopotentials/Br.pbe-dn-kjpaw_psl.1.0.0.UPF
     MD5 check sum: 4ca4ebabfd6065c7bb707b2ebe99e9b3
     Pseudo is Projector augmented-wave + core cor, Zval = 17.0
     Generated using &quot;atomic&quot; code by A. Dal Corso  v.6.3
     Shape of augmentation charge: PSQ
     Using radial grid of 1213 points,  6 beta functions with: 
                l(1) =   0
                l(2) =   0
                l(3) =   1
                l(4) =   1
                l(5) =   2
                l(6) =   2
     Q(r) pseudized with 0 coefficients 


     atomic species   valence    mass     pseudopotential
        Li             3.00     6.94100     Li( 1.00)
        Er            11.00   167.25900     Er( 1.00)
        Br            17.00    79.90400     Br( 1.00)

      2 Sym. Ops. (no inversion) found



   Cartesian axes

     site n.     atom                  positions (alat units)
         1           Li  tau(   1) = (   3.4836780   9.9564306   0.0000000  )
         2           Li  tau(   2) = (   3.4836780   2.0173957   0.0000000  )
         3           Li  tau(   3) = (   2.3213165   7.8846440   3.2688215  )
         4           Li  tau(   4) = (   0.0000000   3.9569906   0.0000000  )
         5           Li  tau(   5) = (   0.0000000   8.0168357   0.0000000  )
         6           Li  tau(   6) = (  -1.1623615   1.8852040   3.2688215  )
         7           Er  tau(   7) = (   3.4836780   5.9699947   0.0000000  )
         8           Er  tau(   8) = (   0.0000000  11.9694347   0.0000000  )
         9           Br  tau(   9) = (   3.4471523   9.9581465   5.0158758  )
        10           Br  tau(  10) = (   3.5847273   1.9854607   4.9258002  )
        11           Br  tau(  11) = (   1.0579057   1.9854607   1.6118428  )
        12           Br  tau(  12) = (   1.1954807   9.9581465   1.5217672  )
        13           Br  tau(  13) = (  -0.0150075   0.0698395   4.9769442  )
        14           Br  tau(  14) = (   4.6576405   0.0698395   1.5606988  )
        15           Br  tau(  15) = (  -0.0365257   3.9587065   5.0158758  )
        16           Br  tau(  16) = (   0.1010493   7.9849007   4.9258002  )
        17           Br  tau(  17) = (   4.5415837   7.9849007   1.6118428  )
        18           Br  tau(  18) = (   4.6791587   3.9587065   1.5217672  )
        19           Br  tau(  19) = (   3.4686705   6.0692795   4.9769442  )
        20           Br  tau(  20) = (   1.1739625   6.0692795   1.5606988  )

     number of k points=     8  Fermi-Dirac smearing, width (Ry)=  0.0070
                       cart. coord. in units 2pi/alat
        k(    1) = (   0.0000000   0.0000000   0.0000000), wk =   0.2500000
        k(    2) = (   0.0000000   0.0000000  -0.0764802), wk =   0.2500000
        k(    3) = (   0.0000000  -0.0416706   0.0000000), wk =   0.2500000
        k(    4) = (   0.0000000  -0.0416706  -0.0764802), wk =   0.2500000
        k(    5) = (  -0.0717632   0.0000000  -0.0255183), wk =   0.2500000
        k(    6) = (  -0.0717632   0.0000000  -0.1019985), wk =   0.2500000
        k(    7) = (  -0.0717632  -0.0416706  -0.0255183), wk =   0.2500000
        k(    8) = (  -0.0717632  -0.0416706  -0.1019985), wk =   0.2500000

     Dense  grid:   176197 G-vectors     FFT dimensions: (  60, 108,  60)

     Smooth grid:   126097 G-vectors     FFT dimensions: (  54,  96,  54)

     Estimated max dynamical RAM per process >      31.88 MB

     Estimated total dynamical RAM >       1.49 GB

     Check: negative core charge=   -0.000006

     Initial potential from superposition of free atoms

     starting charge  243.93496, renormalised to  244.00000
     Starting wfcs are  164 randomized atomic wfcs
     Checking if some PAW data can be deallocated... 

     total cpu time spent up to now is        2.3 secs

     Self-consistent Calculation

     iteration #  1     ecut=    40.00 Ry     beta= 0.40
     Davidson diagonalization with overlap
     ethr =  1.00E-02,  avg # of iterations =  4.8

     Threshold (ethr) on eigenvalues was too large:
     Diagonalizing with lowered threshold

     Davidson diagonalization with overlap
     ethr =  1.20E-04,  avg # of iterations =  6.2

     total cpu time spent up to now is        7.4 secs

     total energy              =   -6739.15330088 Ry
     estimated scf accuracy    <       0.30407497 Ry

     iteration #  2     ecut=    40.00 Ry     beta= 0.40
     Davidson diagonalization with overlap
     ethr =  1.25E-04,  avg # of iterations =  2.0

     total cpu time spent up to now is        9.2 secs

     total energy              =   -6739.17108819 Ry
     estimated scf accuracy    <       0.04324462 Ry

     iteration #  3     ecut=    40.00 Ry     beta= 0.40
     Davidson diagonalization with overlap
     ethr =  1.77E-05,  avg # of iterations =  8.4

     total cpu time spent up to now is       12.5 secs

     total energy              =   -6739.17722753 Ry
     estimated scf accuracy    <       0.00484009 Ry

     iteration #  4     ecut=    40.00 Ry     beta= 0.40
     Davidson diagonalization with overlap
     ethr =  1.98E-06,  avg # of iterations =  8.0

     total cpu time spent up to now is       15.6 secs

     total energy              =   -6739.17812378 Ry
     estimated scf accuracy    <       0.00159114 Ry

     iteration #  5     ecut=    40.00 Ry     beta= 0.40
     Davidson diagonalization with overlap
     ethr =  6.52E-07,  avg # of iterations =  1.9

     total cpu time spent up to now is       17.2 secs

     total energy              =   -6739.17680408 Ry
     estimated scf accuracy    <       0.00086840 Ry

     iteration #  6     ecut=    40.00 Ry     beta= 0.40
     Davidson diagonalization with overlap
     ethr =  3.56E-07,  avg # of iterations =  2.0

     total cpu time spent up to now is       18.9 secs

     total energy              =   -6739.17684797 Ry
     estimated scf accuracy    <       0.00013473 Ry

     iteration #  7     ecut=    40.00 Ry     beta= 0.40
     Davidson diagonalization with overlap
     ethr =  5.52E-08,  avg # of iterations =  2.0

     total cpu time spent up to now is       20.6 secs

     total energy              =   -6739.17761839 Ry
     estimated scf accuracy    <       0.00000716 Ry

     iteration #  8     ecut=    40.00 Ry     beta= 0.40
     Davidson diagonalization with overlap
     ethr =  2.94E-09,  avg # of iterations =  2.0

     total cpu time spent up to now is       22.4 secs

     total energy              =   -6739.17819751 Ry
     estimated scf accuracy    <       0.00000136 Ry

     iteration #  9     ecut=    40.00 Ry     beta= 0.40
     Davidson diagonalization with overlap
     ethr =  5.58E-10,  avg # of iterations =  3.0

     total cpu time spent up to now is       24.3 secs

     total energy              =   -6739.17835499 Ry
     estimated scf accuracy    <       0.00000190 Ry

     iteration # 10     ecut=    40.00 Ry     beta= 0.40
     Davidson diagonalization with overlap
     ethr =  5.58E-10,  avg # of iterations =  3.0

     total cpu time spent up to now is       26.2 secs

     total energy              =   -6739.17845218 Ry
     estimated scf accuracy    <       0.00000692 Ry

     iteration # 11     ecut=    40.00 Ry     beta= 0.40
     Davidson diagonalization with overlap
     ethr =  5.58E-10,  avg # of iterations =  3.0

     total cpu time spent up to now is       28.1 secs

     total energy              =   -6739.17846274 Ry
     estimated scf accuracy    <       0.00001283 Ry

     iteration # 12     ecut=    40.00 Ry     beta= 0.40
     Davidson diagonalization with overlap
     ethr =  5.58E-10,  avg # of iterations =  3.0

     total cpu time spent up to now is       29.9 secs

     total energy              =   -6739.17843935 Ry
     estimated scf accuracy    <       0.00002878 Ry

     iteration # 13     ecut=    40.00 Ry     beta= 0.40
     Davidson diagonalization with overlap
     ethr =  5.58E-10,  avg # of iterations =  4.0

     total cpu time spent up to now is       32.0 secs

     total energy              =   -6739.17838619 Ry
     estimated scf accuracy    <       0.00007078 Ry

     iteration # 14     ecut=    40.00 Ry     beta= 0.40
     Davidson diagonalization with overlap
     ethr =  5.58E-10,  avg # of iterations =  4.0

     total cpu time spent up to now is       34.1 secs

     total energy              =   -6739.17816837 Ry
     estimated scf accuracy    <       0.00014406 Ry

     iteration # 15     ecut=    40.00 Ry     beta= 0.40
     Davidson diagonalization with overlap
     ethr =  5.58E-10,  avg # of iterations =  4.0

     total cpu time spent up to now is       36.2 secs

     total energy              =   -6739.17767543 Ry
     estimated scf accuracy    <       0.00033675 Ry

     iteration # 16     ecut=    40.00 Ry     beta= 0.40
     Davidson diagonalization with overlap
     ethr =  5.58E-10,  avg # of iterations =  5.0

     total cpu time spent up to now is       38.5 secs

     total energy              =   -6739.17667885 Ry
     estimated scf accuracy    <       0.00072901 Ry

     iteration # 17     ecut=    40.00 Ry     beta= 0.40
     Davidson diagonalization with overlap
     ethr =  5.58E-10,  avg # of iterations =  5.0

     total cpu time spent up to now is       41.0 secs

     total energy              =   -6739.17491578 Ry
     estimated scf accuracy    <       0.00138450 Ry

     iteration # 18     ecut=    40.00 Ry     beta= 0.40
     Davidson diagonalization with overlap
     ethr =  5.58E-10,  avg # of iterations =  5.0

     total cpu time spent up to now is       43.6 secs

     total energy              =   -6739.17179334 Ry
     estimated scf accuracy    <       0.00226794 Ry

     iteration # 19     ecut=    40.00 Ry     beta= 0.40
     Davidson diagonalization with overlap
     ethr =  5.58E-10,  avg # of iterations =  5.0

     total cpu time spent up to now is       46.2 secs

     total energy              =   -6739.16889255 Ry
     estimated scf accuracy    <       0.00341674 Ry

     iteration # 20     ecut=    40.00 Ry     beta= 0.40
     Davidson diagonalization with overlap
     ethr =  5.58E-10,  avg # of iterations =  4.8

     total cpu time spent up to now is       48.9 secs

     total energy              =   -6739.16560382 Ry
     estimated scf accuracy    <       0.00434932 Ry

     iteration # 21     ecut=    40.00 Ry     beta= 0.40
     Davidson diagonalization with overlap
     ethr =  5.58E-10,  avg # of iterations =  4.2

     total cpu time spent up to now is       51.4 secs

     total energy              =   -6739.16203756 Ry
     estimated scf accuracy    <       0.00533363 Ry

     iteration # 22     ecut=    40.00 Ry     beta= 0.40
     Davidson diagonalization with overlap
     ethr =  5.58E-10,  avg # of iterations =  5.0

     total cpu time spent up to now is       54.0 secs

     total energy              =   -6739.15896620 Ry
     estimated scf accuracy    <       0.00636258 Ry

     iteration # 23     ecut=    40.00 Ry     beta= 0.40
     Davidson diagonalization with overlap
     ethr =  5.58E-10,  avg # of iterations =  7.0

     total cpu time spent up to now is       57.3 secs

     total energy              =   -6739.15608424 Ry
     estimated scf accuracy    <       0.00719314 Ry

     iteration # 24     ecut=    40.00 Ry     beta= 0.40
     Davidson diagonalization with overlap
     ethr =  5.58E-10,  avg # of iterations =  4.0

     total cpu time spent up to now is       59.6 secs

     total energy              =   -6739.15253924 Ry
     estimated scf accuracy    <       0.00787685 Ry

     iteration # 25     ecut=    40.00 Ry     beta= 0.40
     Davidson diagonalization with overlap
     ethr =  5.58E-10,  avg # of iterations =  4.6

     negative rho (up, down):  7.459E-06 0.000E+00

     total cpu time spent up to now is       62.2 secs

     total energy              =   -6739.14838113 Ry
     estimated scf accuracy    <       0.00861963 Ry

     iteration # 26     ecut=    40.00 Ry     beta= 0.40
     Davidson diagonalization with overlap
     ethr =  5.58E-10,  avg # of iterations =  4.0

     negative rho (up, down):  1.865E-06 0.000E+00

     total cpu time spent up to now is       64.7 secs

     total energy              =   -6739.14969922 Ry
     estimated scf accuracy    <       0.00954401 Ry

     iteration # 27     ecut=    40.00 Ry     beta= 0.40
     Davidson diagonalization with overlap
     ethr =  5.58E-10,  avg # of iterations =  4.6

     negative rho (up, down):  1.062E-06 0.000E+00

     total cpu time spent up to now is       67.4 secs

     total energy              =   -6739.15292494 Ry
     estimated scf accuracy    <       0.00902751 Ry

     iteration # 28     ecut=    40.00 Ry     beta= 0.40
     Davidson diagonalization with overlap
     ethr =  5.58E-10,  avg # of iterations =  4.0

     negative rho (up, down):  7.254E-08 0.000E+00

     total cpu time spent up to now is       70.0 secs

     total energy              =   -6739.15813426 Ry
     estimated scf accuracy    <       0.00811180 Ry

     iteration # 29     ecut=    40.00 Ry     beta= 0.40
     Davidson diagonalization with overlap
     ethr =  5.58E-10,  avg # of iterations =  4.0

     total cpu time spent up to now is       72.4 secs

     total energy              =   -6739.16684641 Ry
     estimated scf accuracy    <       0.00661914 Ry

     iteration # 30     ecut=    40.00 Ry     beta= 0.40
     Davidson diagonalization with overlap
     ethr =  5.58E-10,  avg # of iterations =  6.6

     total cpu time spent up to now is       75.9 secs

     total energy              =   -6739.16591664 Ry
     estimated scf accuracy    <       0.00428394 Ry

     iteration # 31     ecut=    40.00 Ry     beta= 0.40
     Davidson diagonalization with overlap
     ethr =  5.58E-10,  avg # of iterations =  4.0

     total cpu time spent up to now is       78.7 secs

     total energy              =   -6739.16616433 Ry
     estimated scf accuracy    <       0.00450656 Ry

     iteration # 32     ecut=    40.00 Ry     beta= 0.40
     Davidson diagonalization with overlap
     ethr =  5.58E-10,  avg # of iterations =  5.0

     total cpu time spent up to now is       81.6 secs

     total energy              =   -6739.16635005 Ry
     estimated scf accuracy    <       0.00433729 Ry

     iteration # 33     ecut=    40.00 Ry     beta= 0.40
     Davidson diagonalization with overlap
     ethr =  5.58E-10,  avg # of iterations =  5.0

     total cpu time spent up to now is       84.6 secs

     total energy              =   -6739.16698968 Ry
     estimated scf accuracy    <       0.00403467 Ry

     iteration # 34     ecut=    40.00 Ry     beta= 0.40
     Davidson diagonalization with overlap
     ethr =  5.58E-10,  avg # of iterations =  5.1

     total cpu time spent up to now is       87.7 secs

     total energy              =   -6739.16564978 Ry
     estimated scf accuracy    <       0.00427749 Ry

     iteration # 35     ecut=    40.00 Ry     beta= 0.40
     Davidson diagonalization with overlap
     ethr =  5.58E-10,  avg # of iterations =  5.4

     total cpu time spent up to now is       91.0 secs

     total energy              =   -6739.18115320 Ry
     estimated scf accuracy    <       0.00424361 Ry

     iteration # 36     ecut=    40.00 Ry     beta= 0.40
     Davidson diagonalization with overlap
     c_bands:  1 eigenvalues not converged
     ethr =  5.58E-10,  avg # of iterations =  7.5

     total cpu time spent up to now is       94.8 secs

     total energy              =   -6739.18280720 Ry
     estimated scf accuracy    <       0.00045812 Ry

     iteration # 37     ecut=    40.00 Ry     beta= 0.40
     Davidson diagonalization with overlap
     ethr =  5.58E-10,  avg # of iterations =  5.6

     total cpu time spent up to now is       98.0 secs

     total energy              =   -6739.18320854 Ry
     estimated scf accuracy    <       0.00006296 Ry

     iteration # 38     ecut=    40.00 Ry     beta= 0.40
     Davidson diagonalization with overlap
     ethr =  5.58E-10,  avg # of iterations =  4.0

     total cpu time spent up to now is      100.6 secs

     total energy              =   -6739.18345935 Ry
     estimated scf accuracy    <       0.00001135 Ry

     iteration # 39     ecut=    40.00 Ry     beta= 0.40
     Davidson diagonalization with overlap
     ethr =  5.58E-10,  avg # of iterations =  4.0

     total cpu time spent up to now is      102.8 secs

     total energy              =   -6739.18354642 Ry
     estimated scf accuracy    <       0.00000670 Ry

     iteration # 40     ecut=    40.00 Ry     beta= 0.40
     Davidson diagonalization with overlap
     ethr =  5.58E-10,  avg # of iterations =  4.0

     total cpu time spent up to now is      104.9 secs

     total energy              =   -6739.18357948 Ry
     estimated scf accuracy    <       0.00000423 Ry

     iteration # 41     ecut=    40.00 Ry     beta= 0.40
     Davidson diagonalization with overlap
     ethr =  5.58E-10,  avg # of iterations =  3.0

     total cpu time spent up to now is      106.9 secs

     total energy              =   -6739.18361110 Ry
     estimated scf accuracy    <       0.00000136 Ry

     iteration # 42     ecut=    40.00 Ry     beta= 0.40
     Davidson diagonalization with overlap
     ethr =  5.56E-10,  avg # of iterations =  3.0

     total cpu time spent up to now is      108.8 secs

     total energy              =   -6739.18368540 Ry
     estimated scf accuracy    <       0.00000023 Ry

     iteration # 43     ecut=    40.00 Ry     beta= 0.40
     Davidson diagonalization with overlap
     ethr =  9.24E-11,  avg # of iterations =  4.0

     total cpu time spent up to now is      111.0 secs

     total energy              =   -6739.18371480 Ry
     estimated scf accuracy    <       0.00000111 Ry

     iteration # 44     ecut=    40.00 Ry     beta= 0.40
     Davidson diagonalization with overlap
     ethr =  9.24E-11,  avg # of iterations =  4.0

     total cpu time spent up to now is      113.1 secs

     total energy              =   -6739.18373179 Ry
     estimated scf accuracy    <       0.00000109 Ry

     iteration # 45     ecut=    40.00 Ry     beta= 0.40
     Davidson diagonalization with overlap
     ethr =  9.24E-11,  avg # of iterations =  4.0

     total cpu time spent up to now is      115.3 secs

     total energy              =   -6739.18372261 Ry
     estimated scf accuracy    <       0.00000061 Ry

     iteration # 46     ecut=    40.00 Ry     beta= 0.40
     Davidson diagonalization with overlap
     ethr =  9.24E-11,  avg # of iterations =  3.0

     total cpu time spent up to now is      117.3 secs

     total energy              =   -6739.18375343 Ry
     estimated scf accuracy    <       0.00000034 Ry

     iteration # 47     ecut=    40.00 Ry     beta= 0.40
     Davidson diagonalization with overlap
     ethr =  9.24E-11,  avg # of iterations =  3.1

     total cpu time spent up to now is      119.3 secs

     total energy              =   -6739.18377125 Ry
     estimated scf accuracy    <       0.00000023 Ry

     iteration # 48     ecut=    40.00 Ry     beta= 0.40
     Davidson diagonalization with overlap
     ethr =  9.24E-11,  avg # of iterations =  3.0

     total cpu time spent up to now is      121.3 secs

     total energy              =   -6739.18378000 Ry
     estimated scf accuracy    <       0.00000168 Ry

     iteration # 49     ecut=    40.00 Ry     beta= 0.40
     Davidson diagonalization with overlap
     ethr =  9.24E-11,  avg # of iterations =  3.0

     total cpu time spent up to now is      123.2 secs

     total energy              =   -6739.18378438 Ry
     estimated scf accuracy    <       0.00000313 Ry

     iteration # 50     ecut=    40.00 Ry     beta= 0.40
     Davidson diagonalization with overlap
     ethr =  9.24E-11,  avg # of iterations =  3.0

     total cpu time spent up to now is      125.2 secs

     total energy              =   -6739.18377498 Ry
     estimated scf accuracy    <       0.00000562 Ry

     iteration # 51     ecut=    40.00 Ry     beta= 0.40
     Davidson diagonalization with overlap
     ethr =  9.24E-11,  avg # of iterations =  4.0

     total cpu time spent up to now is      127.3 secs

     total energy              =   -6739.18377168 Ry
     estimated scf accuracy    <       0.00001428 Ry

     iteration # 52     ecut=    40.00 Ry     beta= 0.40
     Davidson diagonalization with overlap
     ethr =  9.24E-11,  avg # of iterations =  4.0

     total cpu time spent up to now is      129.4 secs

     total energy              =   -6739.18374374 Ry
     estimated scf accuracy    <       0.00001801 Ry

     iteration # 53     ecut=    40.00 Ry     beta= 0.40
     Davidson diagonalization with overlap
     ethr =  9.24E-11,  avg # of iterations =  4.0

     total cpu time spent up to now is      131.5 secs

     total energy              =   -6739.18370032 Ry
     estimated scf accuracy    <       0.00003051 Ry

     iteration # 54     ecut=    40.00 Ry     beta= 0.40
     Davidson diagonalization with overlap
     ethr =  9.24E-11,  avg # of iterations =  4.0

     total cpu time spent up to now is      133.6 secs

     total energy              =   -6739.18365410 Ry
     estimated scf accuracy    <       0.00004754 Ry

     iteration # 55     ecut=    40.00 Ry     beta= 0.40
     Davidson diagonalization with overlap
     ethr =  9.24E-11,  avg # of iterations =  4.0

     total cpu time spent up to now is      135.7 secs

     total energy              =   -6739.18358794 Ry
     estimated scf accuracy    <       0.00006402 Ry

     iteration # 56     ecut=    40.00 Ry     beta= 0.40
     Davidson diagonalization with overlap
     ethr =  9.24E-11,  avg # of iterations =  4.0

     total cpu time spent up to now is      137.8 secs

     total energy              =   -6739.18345562 Ry
     estimated scf accuracy    <       0.00008589 Ry

     iteration # 57     ecut=    40.00 Ry     beta= 0.40
     Davidson diagonalization with overlap
     ethr =  9.24E-11,  avg # of iterations =  4.0

     total cpu time spent up to now is      139.9 secs

     total energy              =   -6739.18337097 Ry
     estimated scf accuracy    <       0.00012871 Ry

     iteration # 58     ecut=    40.00 Ry     beta= 0.40
     Davidson diagonalization with overlap
     ethr =  9.24E-11,  avg # of iterations =  4.6

     total cpu time spent up to now is      142.2 secs

     total energy              =   -6739.18310538 Ry
     estimated scf accuracy    <       0.00015403 Ry

     iteration # 59     ecut=    40.00 Ry     beta= 0.40
     Davidson diagonalization with overlap
     ethr =  9.24E-11,  avg # of iterations =  4.4

     total cpu time spent up to now is      144.6 secs

     total energy              =   -6739.18273582 Ry
     estimated scf accuracy    <       0.00023717 Ry

     iteration # 60     ecut=    40.00 Ry     beta= 0.40
     Davidson diagonalization with overlap
     ethr =  9.24E-11,  avg # of iterations =  5.0

     total cpu time spent up to now is      147.0 secs

     total energy              =   -6739.18196753 Ry
     estimated scf accuracy    <       0.00035489 Ry

     iteration # 61     ecut=    40.00 Ry     beta= 0.40
     Davidson diagonalization with overlap
     ethr =  9.24E-11,  avg # of iterations =  5.0

     total cpu time spent up to now is      149.5 secs

     total energy              =   -6739.18085334 Ry
     estimated scf accuracy    <       0.00060641 Ry

     iteration # 62     ecut=    40.00 Ry     beta= 0.40
     Davidson diagonalization with overlap
     ethr =  9.24E-11,  avg # of iterations =  5.0

     total cpu time spent up to now is      152.0 secs

     total energy              =   -6739.17857482 Ry
     estimated scf accuracy    <       0.00098891 Ry

     iteration # 63     ecut=    40.00 Ry     beta= 0.40
     Davidson diagonalization with overlap
     ethr =  9.24E-11,  avg # of iterations =  5.0

     total cpu time spent up to now is      154.5 secs

     total energy              =   -6739.17513656 Ry
     estimated scf accuracy    <       0.00180842 Ry

     iteration # 64     ecut=    40.00 Ry     beta= 0.40
     Davidson diagonalization with overlap
     ethr =  9.24E-11,  avg # of iterations =  5.0

     total cpu time spent up to now is      157.0 secs

     total energy              =   -6739.16830304 Ry
     estimated scf accuracy    <       0.00314683 Ry

     iteration # 65     ecut=    40.00 Ry     beta= 0.40
     Davidson diagonalization with overlap
     c_bands:  1 eigenvalues not converged
     ethr =  9.24E-11,  avg # of iterations =  7.2

     negative rho (up, down):  1.277E-06 0.000E+00

     total cpu time spent up to now is      160.2 secs

     total energy              =   -6739.15975586 Ry
     estimated scf accuracy    <       0.00593653 Ry

     iteration # 66     ecut=    40.00 Ry     beta= 0.40
     Davidson diagonalization with overlap
     ethr =  9.24E-11,  avg # of iterations =  5.4

     negative rho (up, down):  2.448E-06 0.000E+00

     total cpu time spent up to now is      162.9 secs

     total energy              =   -6739.15316744 Ry
     estimated scf accuracy    <       0.00962730 Ry

     iteration # 67     ecut=    40.00 Ry     beta= 0.40
     Davidson diagonalization with overlap
     ethr =  9.24E-11,  avg # of iterations =  5.1

     negative rho (up, down):  2.703E-06 0.000E+00

     total cpu time spent up to now is      165.6 secs

     total energy              =   -6739.15343905 Ry
     estimated scf accuracy    <       0.01215818 Ry

     iteration # 68     ecut=    40.00 Ry     beta= 0.40
     Davidson diagonalization with overlap
     ethr =  9.24E-11,  avg # of iterations =  6.0

     negative rho (up, down):  4.265E-06 0.000E+00

     total cpu time spent up to now is      168.4 secs

     total energy              =   -6739.14535736 Ry
     estimated scf accuracy    <       0.01144639 Ry

     iteration # 69     ecut=    40.00 Ry     beta= 0.40
     Davidson diagonalization with overlap
     ethr =  9.24E-11,  avg # of iterations =  5.9

     negative rho (up, down):  5.192E-06 0.000E+00

     total cpu time spent up to now is      171.5 secs

     total energy              =   -6739.14103230 Ry
     estimated scf accuracy    <       0.01357372 Ry

     iteration # 70     ecut=    40.00 Ry     beta= 0.40
     Davidson diagonalization with overlap
     ethr =  9.24E-11,  avg # of iterations =  5.0

     negative rho (up, down):  5.800E-06 0.000E+00

     total cpu time spent up to now is      174.2 secs

     total energy              =   -6739.13788889 Ry
     estimated scf accuracy    <       0.01442497 Ry

     iteration # 71     ecut=    40.00 Ry     beta= 0.40
     Davidson diagonalization with overlap
     ethr =  9.24E-11,  avg # of iterations =  5.0

     negative rho (up, down):  5.825E-06 0.000E+00

     total cpu time spent up to now is      176.9 secs

     total energy              =   -6739.13737561 Ry
     estimated scf accuracy    <       0.01503228 Ry

     iteration # 72     ecut=    40.00 Ry     beta= 0.40
     Davidson diagonalization with overlap
     ethr =  9.24E-11,  avg # of iterations =  5.0

     negative rho (up, down):  5.724E-06 0.000E+00

     total cpu time spent up to now is      179.4 secs

     total energy              =   -6739.13629114 Ry
     estimated scf accuracy    <       0.01465142 Ry

     iteration # 73     ecut=    40.00 Ry     beta= 0.40
     Davidson diagonalization with overlap
     ethr =  9.24E-11,  avg # of iterations =  5.9

     negative rho (up, down):  4.218E-06 0.000E+00

     total cpu time spent up to now is      182.1 secs

     total energy              =   -6739.13931273 Ry
     estimated scf accuracy    <       0.01462572 Ry

     iteration # 74     ecut=    40.00 Ry     beta= 0.40
     Davidson diagonalization with overlap
     ethr =  9.24E-11,  avg # of iterations =  6.0

     negative rho (up, down):  1.151E-06 0.000E+00

     total cpu time spent up to now is      185.0 secs

     total energy              =   -6739.15495823 Ry
     estimated scf accuracy    <       0.01290639 Ry

     iteration # 75     ecut=    40.00 Ry     beta= 0.40
     Davidson diagonalization with overlap
     ethr =  9.24E-11,  avg # of iterations =  6.2

     negative rho (up, down):  8.177E-07 0.000E+00

     total cpu time spent up to now is      188.4 secs

     total energy              =   -6739.15835368 Ry
     estimated scf accuracy    <       0.00719452 Ry

     iteration # 76     ecut=    40.00 Ry     beta= 0.40
     Davidson diagonalization with overlap
     ethr =  9.24E-11,  avg # of iterations =  5.0

     total cpu time spent up to now is      191.4 secs

     total energy              =   -6739.16101614 Ry
     estimated scf accuracy    <       0.00606638 Ry

     iteration # 77     ecut=    40.00 Ry     beta= 0.40
     Davidson diagonalization with overlap
     ethr =  9.24E-11,  avg # of iterations =  6.0

     total cpu time spent up to now is      194.6 secs

     total energy              =   -6739.16139217 Ry
     estimated scf accuracy    <       0.00508277 Ry

     iteration # 78     ecut=    40.00 Ry     beta= 0.40
     Davidson diagonalization with overlap
     ethr =  9.24E-11,  avg # of iterations =  5.0

     total cpu time spent up to now is      197.6 secs

     total energy              =   -6739.14715087 Ry
     estimated scf accuracy    <       0.00471091 Ry

     iteration # 79     ecut=    40.00 Ry     beta= 0.40
     Davidson diagonalization with overlap
     ethr =  9.24E-11,  avg # of iterations =  7.0

     total cpu time spent up to now is      201.4 secs

     total energy              =   -6739.15377151 Ry
     estimated scf accuracy    <       0.01190346 Ry

     iteration # 80     ecut=    40.00 Ry     beta= 0.40
     Davidson diagonalization with overlap
     ethr =  9.24E-11,  avg # of iterations =  5.4

     total cpu time spent up to now is      204.6 secs

     total energy              =   -6739.14382672 Ry
     estimated scf accuracy    <       0.00895083 Ry

     iteration # 81     ecut=    40.00 Ry     beta= 0.40
     Davidson diagonalization with overlap
     ethr =  9.24E-11,  avg # of iterations =  6.9

     negative rho (up, down):  8.308E-06 0.000E+00

     total cpu time spent up to now is      208.2 secs

     total energy              =   -6739.14452553 Ry
     estimated scf accuracy    <       0.01360561 Ry

     iteration # 82     ecut=    40.00 Ry     beta= 0.40
     Davidson diagonalization with overlap
     ethr =  9.24E-11,  avg # of iterations =  7.9

     negative rho (up, down):  9.763E-06 0.000E+00

     total cpu time spent up to now is      212.3 secs

     total energy              =   -6739.14539303 Ry
     estimated scf accuracy    <       0.01572947 Ry

     iteration # 83     ecut=    40.00 Ry     beta= 0.40
     Davidson diagonalization with overlap
     ethr =  9.24E-11,  avg # of iterations =  5.0

     negative rho (up, down):  4.157E-05 0.000E+00

     total cpu time spent up to now is      215.3 secs

     total energy              =   -6739.14060190 Ry
     estimated scf accuracy    <       0.01464582 Ry

     iteration # 84     ecut=    40.00 Ry     beta= 0.40
     Davidson diagonalization with overlap
     ethr =  9.24E-11,  avg # of iterations =  6.1

     negative rho (up, down):  8.035E-05 0.000E+00

     total cpu time spent up to now is      218.6 secs

     total energy              =   -6739.13993633 Ry
     estimated scf accuracy    <       0.01671785 Ry

     iteration # 85     ecut=    40.00 Ry     beta= 0.40
     Davidson diagonalization with overlap
     ethr =  9.24E-11,  avg # of iterations =  4.1

     negative rho (up, down):  2.418E-04 0.000E+00

     total cpu time spent up to now is      221.1 secs

     total energy              =   -6739.14074395 Ry
     estimated scf accuracy    <       0.01657215 Ry

     iteration # 86     ecut=    40.00 Ry     beta= 0.40
     Davidson diagonalization with overlap
     ethr =  9.24E-11,  avg # of iterations =  5.0

     negative rho (up, down):  2.372E-04 0.000E+00

     total cpu time spent up to now is      224.1 secs

     total energy              =   -6739.14082839 Ry
     estimated scf accuracy    <       0.01718326 Ry

     iteration # 87     ecut=    40.00 Ry     beta= 0.40
     Davidson diagonalization with overlap
     ethr =  9.24E-11,  avg # of iterations =  5.1

     total cpu time spent up to now is      227.1 secs

     total energy              =   -6739.16416305 Ry
     estimated scf accuracy    <       0.01707334 Ry

     iteration # 88     ecut=    40.00 Ry     beta= 0.40
     Davidson diagonalization with overlap
     ethr =  9.24E-11,  avg # of iterations =  8.4

     total cpu time spent up to now is      231.7 secs

     total energy              =   -6739.13765183 Ry
     estimated scf accuracy    <       0.00399996 Ry

     iteration # 89     ecut=    40.00 Ry     beta= 0.40
     Davidson diagonalization with overlap
     ethr =  9.24E-11,  avg # of iterations =  8.6

     total cpu time spent up to now is      235.8 secs

     total energy              =   -6739.16426483 Ry
     estimated scf accuracy    <       0.01416805 Ry

     iteration # 90     ecut=    40.00 Ry     beta= 0.40
     Davidson diagonalization with overlap
     ethr =  9.24E-11,  avg # of iterations =  7.0

     total cpu time spent up to now is      239.6 secs

     total energy              =   -6739.17929824 Ry
     estimated scf accuracy    <       0.00261642 Ry

     iteration # 91     ecut=    40.00 Ry     beta= 0.40
     Davidson diagonalization with overlap
     ethr =  9.24E-11,  avg # of iterations =  5.0

     total cpu time spent up to now is      242.6 secs

     total energy              =   -6739.17878338 Ry
     estimated scf accuracy    <       0.00038497 Ry

     iteration # 92     ecut=    40.00 Ry     beta= 0.40
     Davidson diagonalization with overlap
     ethr =  9.24E-11,  avg # of iterations =  5.0

     total cpu time spent up to now is      245.4 secs

     total energy              =   -6739.17959400 Ry
     estimated scf accuracy    <       0.00007031 Ry

     iteration # 93     ecut=    40.00 Ry     beta= 0.40
     Davidson diagonalization with overlap
     ethr =  9.24E-11,  avg # of iterations =  5.2

     total cpu time spent up to now is      248.1 secs

     total energy              =   -6739.17933495 Ry
     estimated scf accuracy    <       0.00004596 Ry

     iteration # 94     ecut=    40.00 Ry     beta= 0.40
     Davidson diagonalization with overlap
     ethr =  9.24E-11,  avg # of iterations =  4.0

     total cpu time spent up to now is      250.5 secs

     total energy              =   -6739.17958517 Ry
     estimated scf accuracy    <       0.00001191 Ry

     iteration # 95     ecut=    40.00 Ry     beta= 0.40
     Davidson diagonalization with overlap
     ethr =  9.24E-11,  avg # of iterations =  5.0

     total cpu time spent up to now is      253.0 secs

     total energy              =   -6739.17988483 Ry
     estimated scf accuracy    <       0.00000302 Ry

     iteration # 96     ecut=    40.00 Ry     beta= 0.40
     Davidson diagonalization with overlap
     ethr =  9.24E-11,  avg # of iterations =  5.0

     total cpu time spent up to now is      255.3 secs

     total energy              =   -6739.17983674 Ry
     estimated scf accuracy    <       0.00000357 Ry

     iteration # 97     ecut=    40.00 Ry     beta= 0.40
     Davidson diagonalization with overlap
     ethr =  9.24E-11,  avg # of iterations =  4.0

     total cpu time spent up to now is      257.6 secs

     total energy              =   -6739.18030598 Ry
     estimated scf accuracy    <       0.00000177 Ry

     iteration # 98     ecut=    40.00 Ry     beta= 0.40
     Davidson diagonalization with overlap
     ethr =  9.24E-11,  avg # of iterations =  5.0

     total cpu time spent up to now is      260.0 secs

     total energy              =   -6739.18066851 Ry
     estimated scf accuracy    <       0.00000994 Ry

     iteration # 99     ecut=    40.00 Ry     beta= 0.40
     Davidson diagonalization with overlap
     ethr =  9.24E-11,  avg # of iterations =  5.0

     total cpu time spent up to now is      262.4 secs

     total energy              =   -6739.18100680 Ry
     estimated scf accuracy    <       0.00003074 Ry

     iteration #100     ecut=    40.00 Ry     beta= 0.40
     Davidson diagonalization with overlap
     ethr =  9.24E-11,  avg # of iterations =  5.0

     total cpu time spent up to now is      264.9 secs

     total energy              =   -6739.18114335 Ry
     estimated scf accuracy    <       0.00017378 Ry

     End of self-consistent calculation

     convergence NOT achieved after 100 iterations: stopping

     Writing output data file ./pwscf.save/
 
     init_run     :      1.39s CPU      1.53s WALL (       1 calls)
     electrons    :    256.22s CPU    263.09s WALL (       1 calls)

     Called by init_run:
     wfcinit      :      0.55s CPU      0.59s WALL (       1 calls)
     potinit      :      0.30s CPU      0.32s WALL (       1 calls)
     hinit0       :      0.36s CPU      0.43s WALL (       1 calls)

     Called by electrons:
     c_bands      :    219.42s CPU    224.79s WALL (     101 calls)
     sum_band     :     21.80s CPU     22.58s WALL (     101 calls)
     v_of_rho     :      1.07s CPU      1.10s WALL (     101 calls)
     newd         :      3.70s CPU      3.72s WALL (     101 calls)
     PAW_pot      :      9.78s CPU      9.84s WALL (     101 calls)
     mix_rho      :      0.36s CPU      0.37s WALL (     101 calls)

     Called by c_bands:
     init_us_2    :      1.10s CPU      1.14s WALL (     812 calls)
     cegterg      :    208.24s CPU    213.42s WALL (     404 calls)

     Called by *egterg:
     cdiaghg      :     78.00s CPU     78.94s WALL (    2322 calls)
     h_psi        :     91.40s CPU     93.84s WALL (    2330 calls)
     s_psi        :      6.89s CPU      6.99s WALL (    2330 calls)
     g_psi        :      0.31s CPU      0.32s WALL (    1922 calls)

     Called by h_psi:
     h_psi:calbec :      7.60s CPU      7.67s WALL (    2330 calls)
     vloc_psi     :     76.20s CPU     78.27s WALL (    2330 calls)
     add_vuspsi   :      7.10s CPU      7.14s WALL (    2330 calls)

     General routines
     calbec       :      9.90s CPU      9.98s WALL (    2734 calls)
     fft          :      0.62s CPU      0.70s WALL (    1314 calls)
     ffts         :      0.09s CPU      0.10s WALL (     202 calls)
     fftw         :     82.41s CPU     84.64s WALL (  414962 calls)
     interpolate  :      0.11s CPU      0.12s WALL (     101 calls)
     davcio       :      0.00s CPU      0.63s WALL (      22 calls)
 
     Parallel routines
     fft_scatt_xy :      9.60s CPU      9.82s WALL (  416478 calls)
     fft_scatt_yz :     31.88s CPU     32.76s WALL (  416478 calls)
 
     PWSCF        :   4m18.52s CPU   4m26.44s WALL

 
   This run was terminated on:  12:34:20   3Aug2021            

=------------------------------------------------------------------------------=
   JOB DONE.
=------------------------------------------------------------------------------=
