
     Program PWSCF v.6.7MaX starts on  2Aug2021 at 17: 1:58 

     This program is part of the open-source Quantum ESPRESSO suite
     for quantum simulation of materials; please cite
         "P. Giannozzi et al., J. Phys.:Condens. Matter 21 395502 (2009);
         "P. Giannozzi et al., J. Phys.:Condens. Matter 29 465901 (2017);
          URL http://www.quantum-espresso.org", 
     in publications or presentations arising from this work. More details at
     http://www.quantum-espresso.org/quote

     Parallel version (MPI), running on    48 processors

     MPI processes distributed on     2 nodes
     K-points division:     npool     =       2
     R & G space division:  proc/nbgrp/npool/nimage =      24
     Waiting for input...
     Reading input from standard input
Warning: card &CELL ignored
Warning: card CELL_DYNAMICS             = 'BFGS', ignored
Warning: card PRESS                     = '0.0', ignored
Warning: card PRESS_CONV_THR            = '0.5', ignored
Warning: card / ignored
     Message from routine read_cards :
     DEPRECATED: no units specified in CELL_PARAMETERS card

     Current dimensions of program PWSCF are:
     Max number of different atomic species (ntypx) = 10
     Max number of k-points (npk) =  40000
     Max angular momentum in pseudopotentials (lmaxx) =  3
     Message from routine cell_base_init:
     DEPRECATED: use true lattice parameter, not A to a.u. conversion factor
 end of file reached, closing tag not found
     file Er.pbe-spdn-kjpaw_psl.1.0.0.UPF: wavefunction(s)  6S 5D renormalized
     file Br.pbe-dn-kjpaw_psl.1.0.0.UPF: wavefunction(s)  4S 4P 3D renormalized

     Subspace diagonalization in iterative solution of the eigenvalue problem:
     a serial algorithm will be used

     Found symmetry operation: I + ( -0.5000 -0.5000  0.0000)
     This is a supercell, fractional translations are disabled
     Message from routine setup:
     using ibrav=0 with symmetry is DISCOURAGED, use correct ibrav instead
     Message from routine divide_et_impera:
     suboptimal parallelization: some nodes have no k-points
 
     Parallelization info
     --------------------
     sticks:   dense  smooth     PW     G-vecs:    dense   smooth      PW
     Min         296     237     63                13483     9650    1327
     Max         299     238     64                13485     9653    1330
     Sum        7129    5707   1517               323627   231643   31871
 


     bravais-lattice index     =            0
     lattice parameter (alat)  =       1.8897  a.u.
     unit-cell volume          =    3688.3023 (a.u.)^3
     number of atoms/cell      =           20
     number of atomic types    =            3
     number of electrons       =       244.00
     number of Kohn-Sham states=          146
     kinetic-energy cutoff     =      60.0000  Ry
     charge density cutoff     =     300.0000  Ry
     scf convergence threshold =      1.0E-08
     mixing beta               =       0.4000
     number of iterations used =            8  plain     mixing
     Exchange-correlation= SLA  PW   PBX  PBC
                           (   1   4   3   4   0   0   0)

     celldm(1)=   1.889726  celldm(2)=   0.000000  celldm(3)=   0.000000
     celldm(4)=   0.000000  celldm(5)=   0.000000  celldm(6)=   0.000000

     crystal axes: (cart. coord. in units of alat)
               a(1) = (   6.967356   0.000000   0.000000 )  
               a(2) = (   0.000000  11.998880   0.000000 )  
               a(3) = (  -2.324723   0.000000   6.537643 )  

     reciprocal axes: (cart. coord. in units 2 pi/alat)
               b(1) = (  0.143526  0.000000  0.051037 )  
               b(2) = (  0.000000  0.083341  0.000000 )  
               b(3) = (  0.000000  0.000000  0.152960 )  


     PseudoPot. # 1 for Li read from file:
     /central/groups/SeeGroup/qe_pseudopotentials/Li.pbe-s-kjpaw_psl.1.0.0.UPF
     MD5 check sum: cc502796ee09d8b62ac346ee26e59beb
     Pseudo is Projector augmented-wave, Zval =  3.0
     Generated using &quot;atomic&quot; code by A. Dal Corso  v.6.3
     Shape of augmentation charge: PSQ
     Using radial grid of 1017 points,  4 beta functions with: 
                l(1) =   0
                l(2) =   0
                l(3) =   1
                l(4) =   1
     Q(r) pseudized with 0 coefficients 


     PseudoPot. # 2 for Er read from file:
     /central/groups/SeeGroup/qe_pseudopotentials/Er.pbe-spdn-kjpaw_psl.1.0.0.UPF
     MD5 check sum: a923254af2aef992cff3e18bc73f2922
     Pseudo is Projector augmented-wave + core cor, Zval = 11.0
     Generated using &quot;atomic&quot; code by A. Dal Corso  v.6.2.2
     Shape of augmentation charge: PSQ
     Using radial grid of 1267 points,  6 beta functions with: 
                l(1) =   0
                l(2) =   0
                l(3) =   1
                l(4) =   1
                l(5) =   2
                l(6) =   2
     Q(r) pseudized with 0 coefficients 


     PseudoPot. # 3 for Br read from file:
     /central/groups/SeeGroup/qe_pseudopotentials/Br.pbe-dn-kjpaw_psl.1.0.0.UPF
     MD5 check sum: 4ca4ebabfd6065c7bb707b2ebe99e9b3
     Pseudo is Projector augmented-wave + core cor, Zval = 17.0
     Generated using &quot;atomic&quot; code by A. Dal Corso  v.6.3
     Shape of augmentation charge: PSQ
     Using radial grid of 1213 points,  6 beta functions with: 
                l(1) =   0
                l(2) =   0
                l(3) =   1
                l(4) =   1
                l(5) =   2
                l(6) =   2
     Q(r) pseudized with 0 coefficients 


     atomic species   valence    mass     pseudopotential
        Li             3.00     6.94100     Li( 1.00)
        Er            11.00   167.25900     Er( 1.00)
        Br            17.00    79.90400     Br( 1.00)

      2 Sym. Ops. (no inversion) found



   Cartesian axes

     site n.     atom                  positions (alat units)
         1           Li  tau(   1) = (   3.4836780   9.9564306   0.0000000  )
         2           Li  tau(   2) = (   3.4836780   2.0173957   0.0000000  )
         3           Li  tau(   3) = (   2.3213165   7.8846440   3.2688215  )
         4           Li  tau(   4) = (   0.0000000   3.9569906   0.0000000  )
         5           Li  tau(   5) = (   0.0000000   8.0168357   0.0000000  )
         6           Li  tau(   6) = (  -1.1623615   1.8852040   3.2688215  )
         7           Er  tau(   7) = (   3.4836780   5.9699947   0.0000000  )
         8           Er  tau(   8) = (   0.0000000  11.9694347   0.0000000  )
         9           Br  tau(   9) = (   3.4471523   9.9581465   5.0158758  )
        10           Br  tau(  10) = (   3.5847273   1.9854607   4.9258002  )
        11           Br  tau(  11) = (   1.0579057   1.9854607   1.6118428  )
        12           Br  tau(  12) = (   1.1954807   9.9581465   1.5217672  )
        13           Br  tau(  13) = (  -0.0150075   0.0698395   4.9769442  )
        14           Br  tau(  14) = (   4.6576405   0.0698395   1.5606988  )
        15           Br  tau(  15) = (  -0.0365257   3.9587065   5.0158758  )
        16           Br  tau(  16) = (   0.1010493   7.9849007   4.9258002  )
        17           Br  tau(  17) = (   4.5415837   7.9849007   1.6118428  )
        18           Br  tau(  18) = (   4.6791587   3.9587065   1.5217672  )
        19           Br  tau(  19) = (   3.4686705   6.0692795   4.9769442  )
        20           Br  tau(  20) = (   1.1739625   6.0692795   1.5606988  )

     number of k points=     1  Fermi-Dirac smearing, width (Ry)=  0.0070
                       cart. coord. in units 2pi/alat
        k(    1) = (   0.0000000   0.0000000   0.0000000), wk =   2.0000000

     Dense  grid:   323627 G-vectors     FFT dimensions: (  75, 125,  75)

     Smooth grid:   231643 G-vectors     FFT dimensions: (  72, 120,  72)

     Estimated max dynamical RAM per process >      44.14 MB

     Estimated total dynamical RAM >       2.07 GB

     Check: negative core charge=   -0.000002

     Initial potential from superposition of free atoms

     starting charge  243.93496, renormalised to  244.00000
     Starting wfcs are  164 randomized atomic wfcs
     Checking if some PAW data can be deallocated... 

     total cpu time spent up to now is        1.8 secs

     Self-consistent Calculation

     iteration #  1     ecut=    60.00 Ry     beta= 0.40
     Davidson diagonalization with overlap
     ethr =  1.00E-02,  avg # of iterations =  6.0

     Threshold (ethr) on eigenvalues was too large:
     Diagonalizing with lowered threshold

     Davidson diagonalization with overlap
     ethr =  1.25E-04,  avg # of iterations =  6.0

     total cpu time spent up to now is        3.5 secs

     total energy              =   -6740.38254252 Ry
     estimated scf accuracy    <       0.30644988 Ry

     iteration #  2     ecut=    60.00 Ry     beta= 0.40
     Davidson diagonalization with overlap
     ethr =  1.26E-04,  avg # of iterations =  2.0

     total cpu time spent up to now is        4.2 secs

     total energy              =   -6740.40984724 Ry
     estimated scf accuracy    <       0.04242681 Ry

     iteration #  3     ecut=    60.00 Ry     beta= 0.40
     Davidson diagonalization with overlap
     ethr =  1.74E-05,  avg # of iterations =  6.0

     total cpu time spent up to now is        5.2 secs

     total energy              =   -6740.41541610 Ry
     estimated scf accuracy    <       0.00573533 Ry

     iteration #  4     ecut=    60.00 Ry     beta= 0.40
     Davidson diagonalization with overlap
     ethr =  2.35E-06,  avg # of iterations = 19.0

     total cpu time spent up to now is        6.6 secs

     total energy              =   -6740.41613386 Ry
     estimated scf accuracy    <       0.00081876 Ry

     iteration #  5     ecut=    60.00 Ry     beta= 0.40
     Davidson diagonalization with overlap
     ethr =  3.36E-07,  avg # of iterations =  2.0

     total cpu time spent up to now is        7.3 secs

     total energy              =   -6740.41626897 Ry
     estimated scf accuracy    <       0.00020848 Ry

     iteration #  6     ecut=    60.00 Ry     beta= 0.40
     Davidson diagonalization with overlap
     ethr =  8.54E-08,  avg # of iterations =  2.0

     total cpu time spent up to now is        8.1 secs

     total energy              =   -6740.41628687 Ry
     estimated scf accuracy    <       0.00004115 Ry

     iteration #  7     ecut=    60.00 Ry     beta= 0.40
     Davidson diagonalization with overlap
     ethr =  1.69E-08,  avg # of iterations =  2.0

     total cpu time spent up to now is        8.8 secs

     total energy              =   -6740.41628898 Ry
     estimated scf accuracy    <       0.00000076 Ry

     iteration #  8     ecut=    60.00 Ry     beta= 0.40
     Davidson diagonalization with overlap
     ethr =  3.11E-10,  avg # of iterations =  3.0

     total cpu time spent up to now is        9.7 secs

     total energy              =   -6740.41628924 Ry
     estimated scf accuracy    <       0.00000013 Ry

     iteration #  9     ecut=    60.00 Ry     beta= 0.40
     Davidson diagonalization with overlap
     ethr =  5.33E-11,  avg # of iterations =  2.0

     total cpu time spent up to now is       10.4 secs

     End of self-consistent calculation

          k = 0.0000 0.0000 0.0000 ( 28943 PWs)   bands (ev):

   -56.1883 -56.1882 -56.1882 -56.1882 -56.1861 -56.1861 -56.1861 -56.1861
   -56.1602 -56.1602 -56.1602 -56.1602 -56.1568 -56.1568 -56.1567 -56.1567
   -56.1495 -56.1495 -56.1494 -56.1494 -56.1480 -56.1479 -56.1479 -56.1479
   -56.1413 -56.1412 -56.1412 -56.1412 -56.1369 -56.1369 -56.1368 -56.1368
   -56.1352 -56.1352 -56.1352 -56.1352 -56.1302 -56.1302 -56.1302 -56.1301
   -56.1206 -56.1206 -56.1206 -56.1205 -56.1051 -56.1051 -56.1049 -56.1049
   -56.1034 -56.1033 -56.1032 -56.1032 -56.0961 -56.0961 -56.0961 -56.0960
   -56.0951 -56.0950 -56.0950 -56.0950 -46.9224 -46.9223 -42.1105 -42.1104
   -41.8399 -41.8398 -41.7792 -41.7791 -20.7618 -20.7617 -20.7425 -20.7424
   -20.7356 -20.7353 -10.6786 -10.4947 -10.3508 -10.2403 -10.2295 -10.2204
   -10.1987 -10.1952 -10.1827 -10.1153 -10.1089 -10.0880  -0.1334  -0.1233
     0.2573   0.2847   0.2935   0.4332   0.4809   0.6454   0.7084   0.7760
     0.8853   0.8899   0.8975   1.0370   1.1506   1.2805   1.2831   1.2834
     1.3057   1.5098   1.5545   1.7200   1.7771   1.9751   2.0179   2.0584
     2.0945   2.1082   2.2300   2.2831   2.3671   2.5063   2.5527   2.5701
     2.6102   2.6113   7.0634   7.3225   7.4662   7.4794   7.4866   7.5389
     7.5761   8.7352   8.7803   8.8197   9.1421   9.1834   9.3757   9.4102
     9.5199   9.7568   9.9624  10.3347  10.3558  10.3866  10.7175  10.9118
    10.9672  11.1213

     the Fermi energy is     4.8997 ev

!    total energy              =   -6740.41628936 Ry

     total all-electron energy =   -114993.432247 Ry
     estimated scf accuracy    <          9.2E-09 Ry
     smearing contrib. (-TS)   =      -0.00000000 Ry
     internal energy E=F+TS    =   -6740.41628936 Ry

     The total energy is F=E-TS. E is the sum of the following terms:
     one-electron contribution =   -3516.49591159 Ry
     hartree contribution      =    1688.93250304 Ry
     xc contribution           =    -503.34831017 Ry
     ewald contribution        =   -1690.68325647 Ry
     one-center paw contrib.   =   -2718.82131417 Ry

     convergence has been achieved in   9 iterations

     Forces acting on atoms (cartesian axes, Ry/au):

     atom    1 type  1   force =     0.00000000   -0.00188280    0.00000000
     atom    2 type  1   force =     0.00000000    0.00036698    0.00000000
     atom    3 type  1   force =     0.00000000   -0.00147650    0.00000000
     atom    4 type  1   force =     0.00000000   -0.00187373    0.00000000
     atom    5 type  1   force =     0.00000000    0.00037094    0.00000000
     atom    6 type  1   force =     0.00000000   -0.00146458    0.00000000
     atom    7 type  2   force =     0.00000000   -0.00014322    0.00000000
     atom    8 type  2   force =     0.00000000   -0.00012544    0.00000000
     atom    9 type  3   force =     0.00041872    0.00587074    0.00684794
     atom   10 type  3   force =     0.00554543   -0.00180539    0.00172204
     atom   11 type  3   force =    -0.00554543   -0.00180539   -0.00172204
     atom   12 type  3   force =    -0.00041872    0.00587074   -0.00684794
     atom   13 type  3   force =    -0.00433676   -0.00211071    0.00531431
     atom   14 type  3   force =     0.00433676   -0.00211071   -0.00531431
     atom   15 type  3   force =     0.00039132    0.00563541    0.00686444
     atom   16 type  3   force =     0.00556592   -0.00211356    0.00169963
     atom   17 type  3   force =    -0.00556592   -0.00211356   -0.00169963
     atom   18 type  3   force =    -0.00039132    0.00563541   -0.00686444
     atom   19 type  3   force =    -0.00423794   -0.00236232    0.00534758
     atom   20 type  3   force =     0.00423794   -0.00236232   -0.00534758

     Total force =     0.026282     Total SCF correction =     0.000361


     Computing stress (Cartesian axis) and pressure

          total   stress  (Ry/bohr**3)                   (kbar)     P=       -3.04
  -0.00006855   0.00000000   0.00008602          -10.08        0.00       12.65
   0.00000000   0.00000240   0.00000000            0.00        0.35        0.00
   0.00008602   0.00000000   0.00000413           12.65        0.00        0.61


     Writing output data file ./pwscf.save/
 
     init_run     :      1.27s CPU      1.31s WALL (       1 calls)
     electrons    :      8.54s CPU      8.74s WALL (       1 calls)
     forces       :      0.62s CPU      0.62s WALL (       1 calls)
     stress       :      2.11s CPU      2.12s WALL (       1 calls)

     Called by init_run:
     wfcinit      :      0.18s CPU      0.19s WALL (       1 calls)
     potinit      :      0.45s CPU      0.45s WALL (       1 calls)
     hinit0       :      0.43s CPU      0.45s WALL (       1 calls)

     Called by electrons:
     c_bands      :      5.49s CPU      5.56s WALL (      10 calls)
     sum_band     :      1.38s CPU      1.41s WALL (      10 calls)
     v_of_rho     :      0.22s CPU      0.23s WALL (      10 calls)
     newd         :      0.62s CPU      0.63s WALL (      10 calls)
     PAW_pot      :      0.88s CPU      0.89s WALL (      10 calls)
     mix_rho      :      0.05s CPU      0.05s WALL (      10 calls)

     Called by c_bands:
     init_us_2    :      0.05s CPU      0.05s WALL (      21 calls)
     cegterg      :      5.25s CPU      5.32s WALL (      10 calls)

     Called by *egterg:
     cdiaghg      :      1.48s CPU      1.48s WALL (      59 calls)
     h_psi        :      2.41s CPU      2.46s WALL (      61 calls)
     s_psi        :      0.28s CPU      0.28s WALL (      61 calls)
     g_psi        :      0.01s CPU      0.01s WALL (      50 calls)

     Called by h_psi:
     h_psi:calbec :      0.32s CPU      0.32s WALL (      61 calls)
     vloc_psi     :      1.77s CPU      1.81s WALL (      61 calls)
     add_vuspsi   :      0.29s CPU      0.29s WALL (      61 calls)

     General routines
     calbec       :      0.49s CPU      0.49s WALL (      76 calls)
     fft          :      0.18s CPU      0.19s WALL (     154 calls)
     ffts         :      0.01s CPU      0.01s WALL (      20 calls)
     fftw         :      1.96s CPU      2.00s WALL (    8672 calls)
     interpolate  :      0.02s CPU      0.02s WALL (      10 calls)
 
     Parallel routines
     fft_scatt_xy :      0.28s CPU      0.28s WALL (    8846 calls)
     fft_scatt_yz :      0.87s CPU      0.89s WALL (    8846 calls)
 
     PWSCF        :     12.83s CPU     13.84s WALL

 
   This run was terminated on:  17: 2:12   2Aug2021            

=------------------------------------------------------------------------------=
   JOB DONE.
=------------------------------------------------------------------------------=
