
     Program PWSCF v.6.7MaX starts on 26Jul2021 at 16:42:23 

     This program is part of the open-source Quantum ESPRESSO suite
     for quantum simulation of materials; please cite
         "P. Giannozzi et al., J. Phys.:Condens. Matter 21 395502 (2009);
         "P. Giannozzi et al., J. Phys.:Condens. Matter 29 465901 (2017);
          URL http://www.quantum-espresso.org", 
     in publications or presentations arising from this work. More details at
     http://www.quantum-espresso.org/quote

     Parallel version (MPI), running on    48 processors

     MPI processes distributed on     2 nodes
     K-points division:     npool     =       2
     R & G space division:  proc/nbgrp/npool/nimage =      24
     Waiting for input...
     Reading input from standard input
     Message from routine read_cards :
     DEPRECATED: no units specified in CELL_PARAMETERS card

     Current dimensions of program PWSCF are:
     Max number of different atomic species (ntypx) = 10
     Max number of k-points (npk) =  40000
     Max angular momentum in pseudopotentials (lmaxx) =  3
     Message from routine cell_base_init:
     DEPRECATED: use true lattice parameter, not A to a.u. conversion factor
 end of file reached, closing tag not found
     file Er.pbe-spdn-kjpaw_psl.1.0.0.UPF: wavefunction(s)  6S 5D renormalized
     file Br.pbe-dn-kjpaw_psl.1.0.0.UPF: wavefunction(s)  4S 4P 3D renormalized

     Subspace diagonalization in iterative solution of the eigenvalue problem:
     a serial algorithm will be used

     Found symmetry operation: I + ( -0.5000 -0.5000  0.0000)
     This is a supercell, fractional translations are disabled
     Message from routine setup:
     using ibrav=0 with symmetry is DISCOURAGED, use correct ibrav instead
 
     Parallelization info
     --------------------
     sticks:   dense  smooth     PW     G-vecs:    dense   smooth      PW
     Min         594     474    128                38139    27283    3835
     Max         595     475    129                38141    27287    3839
     Sum       14271   11389   3073               915355   654837   92095
 


     bravais-lattice index     =            0
     lattice parameter (alat)  =       1.8897  a.u.
     unit-cell volume          =    3688.3023 (a.u.)^3
     number of atoms/cell      =           20
     number of atomic types    =            3
     number of electrons       =       244.00
     number of Kohn-Sham states=          146
     kinetic-energy cutoff     =     120.0000  Ry
     charge density cutoff     =     600.0000  Ry
     scf convergence threshold =      1.0E-08
     mixing beta               =       0.4000
     number of iterations used =            8  plain     mixing
     energy convergence thresh.=      1.0E-06
     force convergence thresh. =      1.0E-05
     press convergence thresh. =      5.0E-01
     Exchange-correlation= SLA  PW   PBX  PBC
                           (   1   4   3   4   0   0   0)
     nstep                     =          100


     celldm(1)=   1.889726  celldm(2)=   0.000000  celldm(3)=   0.000000
     celldm(4)=   0.000000  celldm(5)=   0.000000  celldm(6)=   0.000000

     crystal axes: (cart. coord. in units of alat)
               a(1) = (   6.967356   0.000000   0.000000 )  
               a(2) = (   0.000000  11.998880   0.000000 )  
               a(3) = (  -2.324723   0.000000   6.537643 )  

     reciprocal axes: (cart. coord. in units 2 pi/alat)
               b(1) = (  0.143526  0.000000  0.051037 )  
               b(2) = (  0.000000  0.083341  0.000000 )  
               b(3) = (  0.000000  0.000000  0.152960 )  


     PseudoPot. # 1 for Li read from file:
     /central/groups/SeeGroup/qe_pseudopotentials/Li.pbe-s-kjpaw_psl.1.0.0.UPF
     MD5 check sum: cc502796ee09d8b62ac346ee26e59beb
     Pseudo is Projector augmented-wave, Zval =  3.0
     Generated using &quot;atomic&quot; code by A. Dal Corso  v.6.3
     Shape of augmentation charge: PSQ
     Using radial grid of 1017 points,  4 beta functions with: 
                l(1) =   0
                l(2) =   0
                l(3) =   1
                l(4) =   1
     Q(r) pseudized with 0 coefficients 


     PseudoPot. # 2 for Er read from file:
     /central/groups/SeeGroup/qe_pseudopotentials/Er.pbe-spdn-kjpaw_psl.1.0.0.UPF
     MD5 check sum: a923254af2aef992cff3e18bc73f2922
     Pseudo is Projector augmented-wave + core cor, Zval = 11.0
     Generated using &quot;atomic&quot; code by A. Dal Corso  v.6.2.2
     Shape of augmentation charge: PSQ
     Using radial grid of 1267 points,  6 beta functions with: 
                l(1) =   0
                l(2) =   0
                l(3) =   1
                l(4) =   1
                l(5) =   2
                l(6) =   2
     Q(r) pseudized with 0 coefficients 


     PseudoPot. # 3 for Br read from file:
     /central/groups/SeeGroup/qe_pseudopotentials/Br.pbe-dn-kjpaw_psl.1.0.0.UPF
     MD5 check sum: 4ca4ebabfd6065c7bb707b2ebe99e9b3
     Pseudo is Projector augmented-wave + core cor, Zval = 17.0
     Generated using &quot;atomic&quot; code by A. Dal Corso  v.6.3
     Shape of augmentation charge: PSQ
     Using radial grid of 1213 points,  6 beta functions with: 
                l(1) =   0
                l(2) =   0
                l(3) =   1
                l(4) =   1
                l(5) =   2
                l(6) =   2
     Q(r) pseudized with 0 coefficients 


     atomic species   valence    mass     pseudopotential
        Li             3.00     6.94100     Li( 1.00)
        Er            11.00   167.25900     Er( 1.00)
        Br            17.00    79.90400     Br( 1.00)

      2 Sym. Ops. (no inversion) found



   Cartesian axes

     site n.     atom                  positions (alat units)
         1           Li  tau(   1) = (   3.4836780   9.9564306   0.0000000  )
         2           Li  tau(   2) = (   3.4836780   2.0173957   0.0000000  )
         3           Li  tau(   3) = (   2.3213165   7.8846440   3.2688215  )
         4           Li  tau(   4) = (   0.0000000   3.9569906   0.0000000  )
         5           Li  tau(   5) = (   0.0000000   8.0168357   0.0000000  )
         6           Li  tau(   6) = (  -1.1623615   1.8852040   3.2688215  )
         7           Er  tau(   7) = (   3.4836780   5.9699947   0.0000000  )
         8           Er  tau(   8) = (   0.0000000  11.9694347   0.0000000  )
         9           Br  tau(   9) = (   3.4471523   9.9581465   5.0158758  )
        10           Br  tau(  10) = (   3.5847273   1.9854607   4.9258002  )
        11           Br  tau(  11) = (   1.0579057   1.9854607   1.6118428  )
        12           Br  tau(  12) = (   1.1954807   9.9581465   1.5217672  )
        13           Br  tau(  13) = (  -0.0150075   0.0698395   4.9769442  )
        14           Br  tau(  14) = (   4.6576405   0.0698395   1.5606988  )
        15           Br  tau(  15) = (  -0.0365257   3.9587065   5.0158758  )
        16           Br  tau(  16) = (   0.1010493   7.9849007   4.9258002  )
        17           Br  tau(  17) = (   4.5415837   7.9849007   1.6118428  )
        18           Br  tau(  18) = (   4.6791587   3.9587065   1.5217672  )
        19           Br  tau(  19) = (   3.4686705   6.0692795   4.9769442  )
        20           Br  tau(  20) = (   1.1739625   6.0692795   1.5606988  )

     number of k points=    20  Fermi-Dirac smearing, width (Ry)=  0.0070
                       cart. coord. in units 2pi/alat
        k(    1) = (   0.0000000   0.0000000   0.0000000), wk =   0.0625000
        k(    2) = (   0.0000000   0.0000000   0.0382401), wk =   0.1250000
        k(    3) = (   0.0000000   0.0000000  -0.0764802), wk =   0.0625000
        k(    4) = (   0.0000000  -0.0416706   0.0000000), wk =   0.0625000
        k(    5) = (   0.0000000  -0.0416706   0.0382401), wk =   0.1250000
        k(    6) = (   0.0000000  -0.0416706  -0.0764802), wk =   0.0625000
        k(    7) = (   0.0358816   0.0000000   0.0127592), wk =   0.1250000
        k(    8) = (   0.0358816   0.0000000   0.0509992), wk =   0.1250000
        k(    9) = (   0.0358816   0.0000000  -0.0637210), wk =   0.1250000
        k(   10) = (   0.0358816   0.0000000  -0.0254809), wk =   0.1250000
        k(   11) = (   0.0358816  -0.0416706   0.0127592), wk =   0.1250000
        k(   12) = (   0.0358816  -0.0416706   0.0509992), wk =   0.1250000
        k(   13) = (   0.0358816  -0.0416706  -0.0637210), wk =   0.1250000
        k(   14) = (   0.0358816  -0.0416706  -0.0254809), wk =   0.1250000
        k(   15) = (  -0.0717632   0.0000000  -0.0255183), wk =   0.0625000
        k(   16) = (  -0.0717632   0.0000000   0.0127218), wk =   0.1250000
        k(   17) = (  -0.0717632   0.0000000  -0.1019985), wk =   0.0625000
        k(   18) = (  -0.0717632  -0.0416706  -0.0255183), wk =   0.0625000
        k(   19) = (  -0.0717632  -0.0416706   0.0127218), wk =   0.1250000
        k(   20) = (  -0.0717632  -0.0416706  -0.1019985), wk =   0.0625000

     Dense  grid:   915355 G-vectors     FFT dimensions: ( 108, 180, 108)

     Smooth grid:   654837 G-vectors     FFT dimensions: (  96, 160,  96)

     Estimated max dynamical RAM per process >     200.13 MB

     Estimated total dynamical RAM >       9.38 GB

     Initial potential from superposition of free atoms

     starting charge  243.93496, renormalised to  244.00000
     Starting wfcs are  164 randomized atomic wfcs
     Checking if some PAW data can be deallocated... 

     total cpu time spent up to now is        8.2 secs

     Self-consistent Calculation

     iteration #  1     ecut=   120.00 Ry     beta= 0.40
     Davidson diagonalization with overlap
     ethr =  1.00E-02,  avg # of iterations =  5.5

     Threshold (ethr) on eigenvalues was too large:
     Diagonalizing with lowered threshold

     Davidson diagonalization with overlap
     ethr =  1.17E-04,  avg # of iterations =  9.3

     total cpu time spent up to now is       45.8 secs

     total energy              =   -6740.52983094 Ry
     estimated scf accuracy    <       0.28241556 Ry

     iteration #  2     ecut=   120.00 Ry     beta= 0.40
     Davidson diagonalization with overlap
     ethr =  1.16E-04,  avg # of iterations =  2.0

     total cpu time spent up to now is       60.0 secs

     total energy              =   -6740.55590016 Ry
     estimated scf accuracy    <       0.03881915 Ry

     iteration #  3     ecut=   120.00 Ry     beta= 0.40
     Davidson diagonalization with overlap
     ethr =  1.59E-05,  avg # of iterations =  6.9

     total cpu time spent up to now is       79.3 secs

     total energy              =   -6740.56096389 Ry
     estimated scf accuracy    <       0.00545076 Ry

     iteration #  4     ecut=   120.00 Ry     beta= 0.40
     Davidson diagonalization with overlap
     ethr =  2.23E-06,  avg # of iterations =  7.5

     total cpu time spent up to now is       98.3 secs

     total energy              =   -6740.56164530 Ry
     estimated scf accuracy    <       0.00077080 Ry

     iteration #  5     ecut=   120.00 Ry     beta= 0.40
     Davidson diagonalization with overlap
     ethr =  3.16E-07,  avg # of iterations =  2.0

     total cpu time spent up to now is      112.1 secs

     total energy              =   -6740.56177676 Ry
     estimated scf accuracy    <       0.00017923 Ry

     iteration #  6     ecut=   120.00 Ry     beta= 0.40
     Davidson diagonalization with overlap
     ethr =  7.35E-08,  avg # of iterations =  2.0

     total cpu time spent up to now is      125.8 secs

     total energy              =   -6740.56179406 Ry
     estimated scf accuracy    <       0.00003529 Ry

     iteration #  7     ecut=   120.00 Ry     beta= 0.40
     Davidson diagonalization with overlap
     ethr =  1.45E-08,  avg # of iterations =  2.0

     total cpu time spent up to now is      139.6 secs

     total energy              =   -6740.56179576 Ry
     estimated scf accuracy    <       0.00000097 Ry

     iteration #  8     ecut=   120.00 Ry     beta= 0.40
     Davidson diagonalization with overlap
     ethr =  3.97E-10,  avg # of iterations =  2.0

     total cpu time spent up to now is      155.1 secs

     total energy              =   -6740.56179587 Ry
     estimated scf accuracy    <       0.00000012 Ry

     iteration #  9     ecut=   120.00 Ry     beta= 0.40
     Davidson diagonalization with overlap
     ethr =  4.92E-11,  avg # of iterations =  2.1

     total cpu time spent up to now is      169.3 secs

     End of self-consistent calculation

          k = 0.0000 0.0000 0.0000 ( 81869 PWs)   bands (ev):

   -56.2765 -56.2765 -56.2765 -56.2764 -56.2736 -56.2736 -56.2735 -56.2735
   -56.2588 -56.2588 -56.2587 -56.2587 -56.2537 -56.2536 -56.2536 -56.2536
   -56.2512 -56.2512 -56.2512 -56.2512 -56.2377 -56.2376 -56.2376 -56.2376
   -56.2256 -56.2255 -56.2255 -56.2255 -56.2219 -56.2219 -56.2219 -56.2218
   -56.2108 -56.2108 -56.2108 -56.2107 -56.2079 -56.2079 -56.2078 -56.2078
   -56.1927 -56.1927 -56.1926 -56.1926 -56.1917 -56.1917 -56.1917 -56.1917
   -56.1907 -56.1907 -56.1907 -56.1906 -56.1846 -56.1846 -56.1846 -56.1845
   -56.1816 -56.1816 -56.1816 -56.1816 -46.9321 -46.9320 -42.0680 -42.0680
   -41.7994 -41.7993 -41.7709 -41.7709 -20.7600 -20.7599 -20.7546 -20.7546
   -20.7545 -20.7543 -10.7218 -10.5408 -10.3947 -10.2883 -10.2785 -10.2692
   -10.2366 -10.2319 -10.2243 -10.1600 -10.1546 -10.1288  -0.1684  -0.1594
     0.2179   0.2442   0.2633   0.4075   0.4549   0.6221   0.6722   0.7410
     0.8621   0.8623   0.8731   0.9982   1.1250   1.2411   1.2641   1.2678
     1.2728   1.4827   1.5252   1.6950   1.7401   1.9380   1.9804   2.0168
     2.0552   2.0730   2.1871   2.2405   2.3322   2.4622   2.5280   2.5281
     2.5730   2.5792   7.0473   7.3026   7.4452   7.4650   7.4669   7.5186
     7.5471   8.7245   8.7421   8.8085   9.1065   9.1638   9.3651   9.3989
     9.4758   9.7236   9.9171  10.3104  10.3252  10.3769  10.6701  10.8570
    10.9490  11.1005

          k = 0.0000 0.0000 0.0382 ( 81853 PWs)   bands (ev):

   -56.2765 -56.2765 -56.2765 -56.2764 -56.2736 -56.2736 -56.2735 -56.2735
   -56.2588 -56.2588 -56.2587 -56.2587 -56.2537 -56.2536 -56.2536 -56.2536
   -56.2512 -56.2512 -56.2512 -56.2512 -56.2377 -56.2376 -56.2376 -56.2376
   -56.2255 -56.2255 -56.2255 -56.2255 -56.2219 -56.2219 -56.2219 -56.2218
   -56.2108 -56.2108 -56.2108 -56.2107 -56.2079 -56.2079 -56.2078 -56.2078
   -56.1927 -56.1927 -56.1926 -56.1926 -56.1917 -56.1917 -56.1917 -56.1917
   -56.1907 -56.1907 -56.1907 -56.1906 -56.1846 -56.1846 -56.1846 -56.1845
   -56.1816 -56.1816 -56.1816 -56.1816 -46.9321 -46.9320 -42.0680 -42.0680
   -41.7994 -41.7993 -41.7709 -41.7709 -20.7600 -20.7600 -20.7546 -20.7546
   -20.7545 -20.7543 -10.6758 -10.5060 -10.3755 -10.3106 -10.2926 -10.2871
   -10.2560 -10.2406 -10.2225 -10.1773 -10.1658 -10.1329  -0.0739   0.0184
     0.2529   0.2910   0.3280   0.3696   0.4410   0.5134   0.6813   0.8176
     0.8236   0.9411   0.9503   1.0451   1.0733   1.1990   1.2776   1.3100
     1.4261   1.4434   1.4493   1.6095   1.7850   1.9428   1.9536   2.0224
     2.0517   2.0973   2.1306   2.1644   2.2481   2.2504   2.3217   2.4585
     2.4939   2.5028   7.1690   7.2665   7.3117   7.3847   7.4916   7.5468
     8.0626   8.8001   8.8540   8.8821   9.1496   9.3125   9.3394   9.5163
     9.7848   9.8664  10.1252  10.2129  10.3907  10.6659  10.7023  10.8512
    10.9565  10.9645

          k = 0.0000 0.0000-0.0765 ( 81848 PWs)   bands (ev):

   -56.2765 -56.2765 -56.2765 -56.2764 -56.2736 -56.2736 -56.2735 -56.2735
   -56.2588 -56.2588 -56.2587 -56.2587 -56.2537 -56.2536 -56.2536 -56.2536
   -56.2512 -56.2512 -56.2512 -56.2512 -56.2377 -56.2376 -56.2376 -56.2376
   -56.2255 -56.2255 -56.2255 -56.2255 -56.2219 -56.2219 -56.2219 -56.2218
   -56.2108 -56.2108 -56.2108 -56.2107 -56.2079 -56.2079 -56.2078 -56.2078
   -56.1927 -56.1927 -56.1926 -56.1926 -56.1917 -56.1917 -56.1917 -56.1917
   -56.1907 -56.1907 -56.1907 -56.1906 -56.1846 -56.1846 -56.1846 -56.1846
   -56.1816 -56.1816 -56.1816 -56.1816 -46.9321 -46.9320 -42.0680 -42.0680
   -41.7994 -41.7993 -41.7709 -41.7709 -20.7601 -20.7600 -20.7547 -20.7546
   -20.7546 -20.7543 -10.6105 -10.4578 -10.3798 -10.3445 -10.3195 -10.2848
   -10.2726 -10.2578 -10.2406 -10.1828 -10.1631 -10.1420   0.0250   0.1835
     0.1909   0.2488   0.3938   0.4981   0.5828   0.6734   0.6854   0.7348
     0.7824   0.9491   0.9904   1.0446   1.0949   1.2085   1.2706   1.3602
     1.3882   1.4542   1.4662   1.5322   1.6690   1.7954   1.8868   1.8997
     1.9536   2.0697   2.1217   2.1331   2.1439   2.2876   2.2985   2.3347
     2.4568   2.4597   7.1906   7.2149   7.2501   7.3270   7.4872   7.5779
     8.6393   8.7927   8.9073   9.0791   9.1932   9.4469   9.8898   9.9483
     9.9575  10.0376  10.0405  10.1870  10.2477  10.3059  10.7758  10.8080
    10.9744  10.9877

          k = 0.0000-0.0417 0.0000 ( 81836 PWs)   bands (ev):

   -56.2765 -56.2765 -56.2765 -56.2764 -56.2736 -56.2736 -56.2735 -56.2735
   -56.2588 -56.2588 -56.2587 -56.2587 -56.2537 -56.2536 -56.2536 -56.2535
   -56.2512 -56.2512 -56.2512 -56.2512 -56.2377 -56.2376 -56.2376 -56.2376
   -56.2256 -56.2255 -56.2255 -56.2255 -56.2219 -56.2219 -56.2219 -56.2218
   -56.2108 -56.2108 -56.2108 -56.2107 -56.2079 -56.2079 -56.2078 -56.2078
   -56.1927 -56.1927 -56.1926 -56.1926 -56.1917 -56.1917 -56.1917 -56.1917
   -56.1907 -56.1907 -56.1907 -56.1906 -56.1846 -56.1846 -56.1846 -56.1845
   -56.1816 -56.1816 -56.1816 -56.1816 -46.9321 -46.9320 -42.0680 -42.0680
   -41.7994 -41.7993 -41.7709 -41.7709 -20.7600 -20.7599 -20.7546 -20.7545
   -20.7545 -20.7544 -10.6536 -10.6536 -10.3174 -10.3174 -10.2894 -10.2894
   -10.1940 -10.1940 -10.1820 -10.1820 -10.1783 -10.1783  -0.1233  -0.1233
     0.1039   0.1039   0.3376   0.3376   0.5099   0.5099   0.7129   0.7129
     0.8485   0.8485   1.0660   1.0660   1.1407   1.1407   1.3233   1.3233
     1.4261   1.4261   1.7543   1.7543   1.8672   1.8672   1.9394   1.9394
     1.9753   1.9754   2.2787   2.2787   2.3261   2.3261   2.4124   2.4124
     2.5465   2.5465   7.2708   7.2708   7.4556   7.4557   7.4804   7.4804
     8.1048   8.1048   8.8892   8.8893   9.0970   9.0970   9.3646   9.3646
     9.5736   9.5737  10.1336  10.1336  10.2458  10.2458  10.8136  10.8136
    11.1255  11.1256

          k = 0.0000-0.0417 0.0382 ( 81822 PWs)   bands (ev):

   -56.2765 -56.2765 -56.2765 -56.2764 -56.2736 -56.2736 -56.2735 -56.2735
   -56.2588 -56.2588 -56.2587 -56.2587 -56.2537 -56.2536 -56.2536 -56.2536
   -56.2512 -56.2512 -56.2512 -56.2512 -56.2377 -56.2376 -56.2376 -56.2376
   -56.2255 -56.2255 -56.2255 -56.2255 -56.2219 -56.2219 -56.2219 -56.2218
   -56.2108 -56.2108 -56.2108 -56.2107 -56.2079 -56.2079 -56.2078 -56.2078
   -56.1927 -56.1927 -56.1926 -56.1926 -56.1917 -56.1917 -56.1917 -56.1917
   -56.1907 -56.1907 -56.1907 -56.1906 -56.1846 -56.1846 -56.1846 -56.1845
   -56.1816 -56.1816 -56.1816 -56.1816 -46.9321 -46.9320 -42.0680 -42.0680
   -41.7994 -41.7993 -41.7709 -41.7709 -20.7600 -20.7600 -20.7546 -20.7546
   -20.7545 -20.7544 -10.6115 -10.6114 -10.3252 -10.3251 -10.2972 -10.2972
   -10.2108 -10.2108 -10.2066 -10.2066 -10.1701 -10.1701  -0.0308  -0.0307
     0.2270   0.2270   0.3648   0.3648   0.4743   0.4743   0.6043   0.6043
     0.9318   0.9318   1.0438   1.0438   1.2373   1.2373   1.3498   1.3498
     1.5499   1.5499   1.6622   1.6622   1.7790   1.7790   1.8794   1.8794
     1.9704   1.9704   2.1522   2.1522   2.2620   2.2620   2.3655   2.3655
     2.4374   2.4374   7.3290   7.3290   7.3772   7.3772   7.4407   7.4407
     8.4390   8.4390   8.9319   8.9319   9.2530   9.2531   9.6344   9.6344
     9.8918   9.8918   9.9496   9.9496  10.4886  10.4886  10.5671  10.5671
    10.9330  10.9330

          k = 0.0000-0.0417-0.0765 ( 81832 PWs)   bands (ev):

   -56.2765 -56.2765 -56.2765 -56.2764 -56.2736 -56.2736 -56.2735 -56.2735
   -56.2588 -56.2588 -56.2587 -56.2587 -56.2537 -56.2536 -56.2536 -56.2536
   -56.2512 -56.2512 -56.2512 -56.2512 -56.2377 -56.2376 -56.2376 -56.2376
   -56.2255 -56.2255 -56.2255 -56.2255 -56.2219 -56.2219 -56.2219 -56.2218
   -56.2108 -56.2108 -56.2108 -56.2107 -56.2079 -56.2079 -56.2078 -56.2078
   -56.1927 -56.1927 -56.1926 -56.1926 -56.1917 -56.1917 -56.1917 -56.1917
   -56.1907 -56.1907 -56.1907 -56.1906 -56.1846 -56.1846 -56.1846 -56.1845
   -56.1816 -56.1816 -56.1816 -56.1816 -46.9321 -46.9320 -42.0680 -42.0680
   -41.7994 -41.7993 -41.7709 -41.7709 -20.7601 -20.7600 -20.7547 -20.7546
   -20.7545 -20.7544 -10.5505 -10.5505 -10.3688 -10.3687 -10.2998 -10.2998
   -10.2325 -10.2325 -10.1932 -10.1932 -10.1831 -10.1831   0.0538   0.0538
     0.2426   0.2426   0.3735   0.3735   0.6018   0.6018   0.7467   0.7467
     0.9809   0.9809   0.9842   0.9843   1.2421   1.2421   1.2463   1.2463
     1.4912   1.4912   1.5595   1.5595   1.8055   1.8055   1.8991   1.8991
     1.9837   1.9837   1.9971   1.9971   2.1975   2.1975   2.2922   2.2922
     2.3950   2.3950   7.2829   7.2830   7.3439   7.3440   7.4705   7.4706
     8.5947   8.5947   9.2054   9.2054   9.4972   9.4972   9.7992   9.7992
    10.0162  10.0162  10.0196  10.0196  10.5278  10.5279  10.5860  10.5861
    11.1799  11.1799

          k = 0.0359 0.0000 0.0128 ( 81891 PWs)   bands (ev):

   -56.2765 -56.2765 -56.2765 -56.2764 -56.2736 -56.2736 -56.2735 -56.2735
   -56.2588 -56.2588 -56.2587 -56.2587 -56.2537 -56.2536 -56.2536 -56.2536
   -56.2512 -56.2512 -56.2512 -56.2512 -56.2377 -56.2376 -56.2376 -56.2376
   -56.2256 -56.2255 -56.2255 -56.2255 -56.2219 -56.2219 -56.2219 -56.2218
   -56.2108 -56.2108 -56.2108 -56.2107 -56.2079 -56.2079 -56.2078 -56.2078
   -56.1927 -56.1927 -56.1926 -56.1926 -56.1917 -56.1917 -56.1917 -56.1917
   -56.1907 -56.1907 -56.1907 -56.1906 -56.1846 -56.1846 -56.1846 -56.1846
   -56.1816 -56.1816 -56.1816 -56.1816 -46.9321 -46.9320 -42.0680 -42.0680
   -41.7994 -41.7993 -41.7709 -41.7709 -20.7600 -20.7599 -20.7547 -20.7546
   -20.7546 -20.7544 -10.6660 -10.5048 -10.3760 -10.3327 -10.2977 -10.2757
   -10.2450 -10.2426 -10.2190 -10.1893 -10.1536 -10.1404  -0.0910   0.0485
     0.2766   0.2777   0.3455   0.3950   0.4503   0.5315   0.7033   0.7568
     0.8334   0.8417   0.8934   0.9686   1.0405   1.1339   1.3527   1.3627
     1.4025   1.5084   1.6305   1.6864   1.8124   1.8442   1.9288   2.0104
     2.0109   2.0944   2.1331   2.1504   2.2268   2.2400   2.3251   2.4734
     2.4848   2.5246   7.1627   7.3371   7.3865   7.3930   7.4226   7.4488
     8.0602   8.8367   8.9053   8.9705   9.0320   9.0393   9.4185   9.6974
     9.7071   9.9482  10.0904  10.2121  10.3965  10.5394  10.6342  10.8057
    10.9857  11.0958

          k = 0.0359 0.0000 0.0510 ( 81828 PWs)   bands (ev):

   -56.2765 -56.2765 -56.2765 -56.2764 -56.2736 -56.2736 -56.2735 -56.2735
   -56.2588 -56.2588 -56.2587 -56.2587 -56.2537 -56.2536 -56.2536 -56.2536
   -56.2512 -56.2512 -56.2512 -56.2512 -56.2377 -56.2376 -56.2376 -56.2376
   -56.2255 -56.2255 -56.2255 -56.2255 -56.2219 -56.2219 -56.2219 -56.2218
   -56.2108 -56.2108 -56.2108 -56.2107 -56.2079 -56.2079 -56.2078 -56.2078
   -56.1927 -56.1927 -56.1926 -56.1926 -56.1917 -56.1917 -56.1917 -56.1917
   -56.1907 -56.1907 -56.1907 -56.1906 -56.1846 -56.1846 -56.1846 -56.1846
   -56.1816 -56.1816 -56.1816 -56.1816 -46.9321 -46.9320 -42.0680 -42.0680
   -41.7994 -41.7993 -41.7709 -41.7709 -20.7600 -20.7600 -20.7547 -20.7546
   -20.7546 -20.7544 -10.6024 -10.4632 -10.3645 -10.3405 -10.3351 -10.2801
   -10.2675 -10.2530 -10.2511 -10.1963 -10.1606 -10.1418   0.0744   0.1287
     0.2324   0.2712   0.4712   0.4875   0.5451   0.5785   0.6391   0.7417
     0.7528   0.8928   1.0482   1.0531   1.0569   1.1629   1.2743   1.2860
     1.3419   1.4331   1.5801   1.6899   1.7576   1.8681   1.9340   1.9584
     1.9953   2.0007   2.0742   2.1402   2.2179   2.2244   2.2316   2.2593
     2.3703   2.4909   7.1910   7.2424   7.3562   7.3673   7.4684   7.4792
     8.6447   8.6849   8.9580   9.0075   9.0233   9.5107   9.5677   9.7949
     9.8772  10.0096  10.1212  10.2478  10.2540  10.5099  10.5603  10.7944
    11.0902  11.3000

          k = 0.0359 0.0000-0.0637 ( 81869 PWs)   bands (ev):

   -56.2765 -56.2765 -56.2765 -56.2764 -56.2736 -56.2736 -56.2735 -56.2735
   -56.2588 -56.2588 -56.2587 -56.2587 -56.2537 -56.2536 -56.2536 -56.2536
   -56.2512 -56.2512 -56.2512 -56.2512 -56.2377 -56.2376 -56.2376 -56.2376
   -56.2256 -56.2255 -56.2255 -56.2255 -56.2219 -56.2219 -56.2219 -56.2218
   -56.2108 -56.2108 -56.2108 -56.2107 -56.2079 -56.2079 -56.2078 -56.2078
   -56.1927 -56.1927 -56.1926 -56.1926 -56.1917 -56.1917 -56.1917 -56.1917
   -56.1907 -56.1907 -56.1907 -56.1906 -56.1846 -56.1846 -56.1846 -56.1845
   -56.1816 -56.1816 -56.1816 -56.1816 -46.9321 -46.9320 -42.0680 -42.0680
   -41.7994 -41.7993 -41.7709 -41.7709 -20.7601 -20.7600 -20.7547 -20.7547
   -20.7546 -20.7544 -10.5736 -10.4326 -10.3651 -10.3599 -10.3122 -10.2988
   -10.2937 -10.2612 -10.2511 -10.1752 -10.1699 -10.1658  -0.0094  -0.0070
     0.2106   0.2212   0.3970   0.4133   0.4797   0.5517   0.5763   0.6657
     0.7170   0.9209   1.0846   1.1139   1.1883   1.2595   1.3868   1.4557
     1.4564   1.6367   1.7122   1.7140   1.7649   1.8638   1.8863   1.8913
     1.9587   1.9903   2.0639   2.1413   2.1931   2.2612   2.2828   2.2984
     2.4246   2.4734   7.1138   7.1972   7.2688   7.2880   7.3747   7.4558
     8.6614   8.7248   9.0946   9.1341   9.1699   9.2393   9.5175   9.5406
     9.6755   9.8373   9.8862  10.0006  10.0437  10.1095  10.3260  10.4584
    11.0424  11.2088

          k = 0.0359 0.0000-0.0255 ( 81890 PWs)   bands (ev):

   -56.2765 -56.2765 -56.2765 -56.2764 -56.2736 -56.2736 -56.2735 -56.2735
   -56.2588 -56.2588 -56.2587 -56.2587 -56.2537 -56.2536 -56.2536 -56.2535
   -56.2512 -56.2512 -56.2512 -56.2512 -56.2377 -56.2376 -56.2376 -56.2376
   -56.2256 -56.2255 -56.2255 -56.2255 -56.2219 -56.2219 -56.2219 -56.2218
   -56.2108 -56.2108 -56.2108 -56.2107 -56.2079 -56.2079 -56.2078 -56.2078
   -56.1927 -56.1927 -56.1926 -56.1926 -56.1917 -56.1917 -56.1917 -56.1917
   -56.1907 -56.1907 -56.1907 -56.1906 -56.1846 -56.1846 -56.1846 -56.1845
   -56.1816 -56.1816 -56.1816 -56.1816 -46.9321 -46.9320 -42.0680 -42.0680
   -41.7994 -41.7993 -41.7709 -41.7709 -20.7600 -20.7600 -20.7547 -20.7546
   -20.7546 -20.7544 -10.6483 -10.4864 -10.3643 -10.3165 -10.3094 -10.2791
   -10.2677 -10.2455 -10.2281 -10.1812 -10.1630 -10.1563  -0.1334  -0.0266
     0.1926   0.2547   0.2956   0.3495   0.4005   0.4206   0.5386   0.6261
     0.7241   0.8985   1.0535   1.0981   1.2392   1.3161   1.3689   1.4436
     1.5813   1.6836   1.7005   1.7670   1.7918   1.8050   1.8514   1.9399
     2.0083   2.0615   2.1209   2.1447   2.3153   2.3389   2.3993   2.4138
     2.4656   2.5378   7.1076   7.2344   7.2572   7.3406   7.3689   7.4202
     8.0915   8.7180   8.9215   9.0133   9.1801   9.2719   9.4225   9.5257
     9.5603   9.7526   9.7831   9.9349   9.9646  10.2075  10.2307  10.3113
    10.8486  11.1907

          k = 0.0359-0.0417 0.0128 ( 81838 PWs)   bands (ev):

   -56.2765 -56.2765 -56.2765 -56.2764 -56.2736 -56.2736 -56.2735 -56.2735
   -56.2588 -56.2588 -56.2587 -56.2587 -56.2537 -56.2536 -56.2536 -56.2536
   -56.2512 -56.2512 -56.2512 -56.2512 -56.2377 -56.2376 -56.2376 -56.2376
   -56.2255 -56.2255 -56.2255 -56.2255 -56.2219 -56.2219 -56.2219 -56.2218
   -56.2108 -56.2108 -56.2108 -56.2107 -56.2079 -56.2079 -56.2078 -56.2078
   -56.1927 -56.1927 -56.1926 -56.1926 -56.1917 -56.1917 -56.1917 -56.1917
   -56.1907 -56.1907 -56.1907 -56.1906 -56.1846 -56.1846 -56.1846 -56.1845
   -56.1816 -56.1816 -56.1816 -56.1816 -46.9321 -46.9320 -42.0680 -42.0680
   -41.7994 -41.7993 -41.7709 -41.7709 -20.7600 -20.7599 -20.7547 -20.7546
   -20.7545 -20.7544 -10.6053 -10.6053 -10.3190 -10.3190 -10.3051 -10.3050
   -10.2327 -10.2327 -10.1986 -10.1986 -10.1607 -10.1606  -0.0279  -0.0279
     0.2419   0.2419   0.3210   0.3210   0.5293   0.5294   0.5941   0.5941
     0.8843   0.8843   1.0602   1.0602   1.2753   1.2753   1.3772   1.3772
     1.4899   1.4899   1.6720   1.6720   1.7172   1.7172   1.8667   1.8667
     2.0340   2.0340   2.1261   2.1261   2.3061   2.3061   2.3461   2.3461
     2.4486   2.4486   7.3347   7.3348   7.3957   7.3958   7.4103   7.4104
     8.4122   8.4123   9.0226   9.0226   9.1320   9.1320   9.6071   9.6071
     9.8535   9.8535  10.1427  10.1427  10.3820  10.3821  10.5266  10.5266
    11.0642  11.0642

          k = 0.0359-0.0417 0.0510 ( 81892 PWs)   bands (ev):

   -56.2765 -56.2765 -56.2765 -56.2764 -56.2736 -56.2736 -56.2735 -56.2735
   -56.2588 -56.2588 -56.2587 -56.2587 -56.2537 -56.2536 -56.2536 -56.2536
   -56.2512 -56.2512 -56.2512 -56.2512 -56.2377 -56.2376 -56.2376 -56.2376
   -56.2255 -56.2255 -56.2255 -56.2255 -56.2219 -56.2219 -56.2219 -56.2218
   -56.2108 -56.2108 -56.2108 -56.2107 -56.2079 -56.2079 -56.2078 -56.2078
   -56.1927 -56.1927 -56.1926 -56.1926 -56.1917 -56.1917 -56.1917 -56.1917
   -56.1907 -56.1907 -56.1907 -56.1906 -56.1846 -56.1846 -56.1846 -56.1846
   -56.1816 -56.1816 -56.1816 -56.1816 -46.9321 -46.9320 -42.0680 -42.0680
   -41.7994 -41.7993 -41.7709 -41.7709 -20.7600 -20.7600 -20.7547 -20.7547
   -20.7545 -20.7544 -10.5492 -10.5492 -10.3422 -10.3422 -10.3081 -10.3080
   -10.2503 -10.2503 -10.2240 -10.2240 -10.1542 -10.1542   0.0311   0.0311
     0.2888   0.2888   0.4272   0.4272   0.5906   0.5906   0.6808   0.6808
     0.8427   0.8427   1.0095   1.0095   1.1861   1.1861   1.4730   1.4730
     1.5428   1.5428   1.6003   1.6003   1.6669   1.6669   1.8163   1.8163
     1.9583   1.9583   2.1153   2.1153   2.2231   2.2231   2.2877   2.2877
     2.3549   2.3549   7.2891   7.2891   7.3592   7.3593   7.4664   7.4664
     8.5592   8.5592   9.1077   9.1077   9.4925   9.4925   9.8051   9.8051
     9.8702   9.8702  10.1493  10.1493  10.2602  10.2603  10.6051  10.6051
    11.1311  11.1311

          k = 0.0359-0.0417-0.0637 ( 81890 PWs)   bands (ev):

   -56.2765 -56.2765 -56.2765 -56.2764 -56.2736 -56.2736 -56.2735 -56.2735
   -56.2588 -56.2588 -56.2587 -56.2587 -56.2537 -56.2536 -56.2536 -56.2536
   -56.2512 -56.2512 -56.2512 -56.2512 -56.2377 -56.2376 -56.2376 -56.2376
   -56.2256 -56.2255 -56.2255 -56.2255 -56.2219 -56.2219 -56.2219 -56.2218
   -56.2108 -56.2108 -56.2108 -56.2107 -56.2079 -56.2079 -56.2078 -56.2078
   -56.1927 -56.1927 -56.1926 -56.1926 -56.1917 -56.1917 -56.1917 -56.1917
   -56.1907 -56.1907 -56.1907 -56.1906 -56.1846 -56.1846 -56.1846 -56.1846
   -56.1816 -56.1816 -56.1816 -56.1816 -46.9321 -46.9320 -42.0680 -42.0680
   -41.7994 -41.7993 -41.7709 -41.7709 -20.7601 -20.7600 -20.7547 -20.7547
   -20.7545 -20.7544 -10.5188 -10.5188 -10.3601 -10.3601 -10.3172 -10.3172
   -10.2410 -10.2410 -10.2168 -10.2168 -10.1755 -10.1755  -0.1019  -0.1019
     0.3043   0.3043   0.3458   0.3458   0.5425   0.5426   0.6433   0.6433
     0.8765   0.8765   1.1206   1.1206   1.2627   1.2627   1.4530   1.4530
     1.5463   1.5463   1.6268   1.6268   1.7818   1.7818   1.8966   1.8966
     2.0105   2.0105   2.0911   2.0911   2.1795   2.1795   2.2847   2.2847
     2.4250   2.4251   7.1674   7.1674   7.3281   7.3281   7.3995   7.3995
     8.7030   8.7030   9.0403   9.0404   9.2845   9.2845   9.4590   9.4590
     9.6533   9.6533  10.2252  10.2252  10.5299  10.5299  10.7144  10.7144
    10.9103  10.9103

          k = 0.0359-0.0417-0.0255 ( 81864 PWs)   bands (ev):

   -56.2765 -56.2765 -56.2765 -56.2764 -56.2736 -56.2736 -56.2735 -56.2735
   -56.2588 -56.2588 -56.2587 -56.2587 -56.2537 -56.2536 -56.2536 -56.2535
   -56.2512 -56.2512 -56.2512 -56.2512 -56.2377 -56.2376 -56.2376 -56.2376
   -56.2256 -56.2255 -56.2255 -56.2255 -56.2219 -56.2219 -56.2219 -56.2218
   -56.2108 -56.2108 -56.2108 -56.2107 -56.2079 -56.2079 -56.2078 -56.2078
   -56.1927 -56.1927 -56.1926 -56.1926 -56.1917 -56.1917 -56.1917 -56.1917
   -56.1907 -56.1907 -56.1907 -56.1906 -56.1846 -56.1846 -56.1846 -56.1845
   -56.1816 -56.1816 -56.1816 -56.1816 -46.9321 -46.9320 -42.0680 -42.0680
   -41.7994 -41.7993 -41.7709 -41.7709 -20.7600 -20.7600 -20.7547 -20.7547
   -20.7545 -20.7544 -10.5870 -10.5870 -10.3285 -10.3284 -10.2964 -10.2964
   -10.2275 -10.2275 -10.2001 -10.2001 -10.1835 -10.1834  -0.1225  -0.1225
     0.2196   0.2196   0.3155   0.3155   0.4327   0.4327   0.4898   0.4899
     0.9667   0.9667   1.1575   1.1575   1.3671   1.3671   1.4919   1.4919
     1.5180   1.5180   1.6279   1.6279   1.7346   1.7346   1.9272   1.9272
     2.0230   2.0230   2.0946   2.0946   2.3446   2.3446   2.4127   2.4127
     2.4579   2.4579   7.2307   7.2307   7.2917   7.2918   7.3797   7.3798
     8.5274   8.5274   8.8610   8.8611   9.1076   9.1077   9.5567   9.5567
     9.7092   9.7092  10.0800  10.0800  10.1953  10.1953  10.2780  10.2780
    11.0118  11.0119

          k =-0.0718 0.0000-0.0255 ( 81844 PWs)   bands (ev):

   -56.2765 -56.2765 -56.2765 -56.2764 -56.2736 -56.2736 -56.2735 -56.2735
   -56.2588 -56.2588 -56.2587 -56.2587 -56.2537 -56.2536 -56.2536 -56.2536
   -56.2512 -56.2512 -56.2512 -56.2512 -56.2377 -56.2376 -56.2376 -56.2376
   -56.2255 -56.2255 -56.2255 -56.2255 -56.2219 -56.2219 -56.2219 -56.2218
   -56.2108 -56.2108 -56.2108 -56.2107 -56.2079 -56.2079 -56.2078 -56.2078
   -56.1927 -56.1927 -56.1926 -56.1926 -56.1917 -56.1917 -56.1917 -56.1917
   -56.1907 -56.1907 -56.1907 -56.1906 -56.1846 -56.1846 -56.1846 -56.1846
   -56.1816 -56.1816 -56.1816 -56.1816 -46.9321 -46.9320 -42.0680 -42.0680
   -41.7994 -41.7993 -41.7709 -41.7709 -20.7600 -20.7599 -20.7548 -20.7547
   -20.7545 -20.7544 -10.5348 -10.5348 -10.3477 -10.3477 -10.3236 -10.3236
   -10.2699 -10.2699 -10.1916 -10.1916 -10.1606 -10.1606   0.0663   0.0663
     0.3785   0.3785   0.4253   0.4253   0.5085   0.5085   0.7341   0.7341
     0.8375   0.8375   1.0044   1.0045   1.1202   1.1202   1.1472   1.1472
     1.5898   1.5898   1.6748   1.6748   1.7172   1.7172   1.8370   1.8370
     2.0447   2.0447   2.0616   2.0616   2.1978   2.1978   2.3645   2.3645
     2.4210   2.4210   7.2736   7.2737   7.3124   7.3125   7.4276   7.4277
     8.7477   8.7478   8.9071   8.9071   9.2884   9.2884   9.8002   9.8002
    10.0613  10.0613  10.1566  10.1566  10.3743  10.3743  10.7163  10.7163
    11.1703  11.1704

          k =-0.0718 0.0000 0.0127 ( 81916 PWs)   bands (ev):

   -56.2765 -56.2765 -56.2765 -56.2765 -56.2736 -56.2736 -56.2735 -56.2735
   -56.2588 -56.2588 -56.2587 -56.2587 -56.2537 -56.2536 -56.2536 -56.2536
   -56.2512 -56.2512 -56.2512 -56.2512 -56.2377 -56.2376 -56.2376 -56.2376
   -56.2256 -56.2255 -56.2255 -56.2255 -56.2219 -56.2219 -56.2219 -56.2218
   -56.2108 -56.2108 -56.2108 -56.2107 -56.2079 -56.2079 -56.2078 -56.2078
   -56.1927 -56.1927 -56.1926 -56.1926 -56.1917 -56.1917 -56.1917 -56.1917
   -56.1907 -56.1907 -56.1907 -56.1906 -56.1846 -56.1846 -56.1846 -56.1845
   -56.1816 -56.1816 -56.1816 -56.1816 -46.9321 -46.9320 -42.0680 -42.0680
   -41.7994 -41.7993 -41.7709 -41.7709 -20.7600 -20.7599 -20.7548 -20.7547
   -20.7545 -20.7544 -10.5358 -10.4801 -10.3566 -10.3331 -10.3299 -10.3040
   -10.2978 -10.2795 -10.2209 -10.1892 -10.1718 -10.1608  -0.0927   0.0943
     0.2394   0.3013   0.3714   0.4207   0.4611   0.5343   0.5398   0.6039
     0.7134   0.9313   0.9544   1.1273   1.2312   1.3050   1.3663   1.4510
     1.5119   1.6836   1.6908   1.7283   1.7693   1.7913   1.8426   1.9878
     2.0141   2.0630   2.0808   2.0879   2.1358   2.1961   2.3166   2.3346
     2.3701   2.4784   7.1557   7.2277   7.2640   7.2680   7.3702   7.3857
     8.6348   8.8940   8.9592   9.0583   9.1756   9.3591   9.3728   9.6055
     9.7360   9.7418   9.9003   9.9425  10.1325  10.2230  10.2842  10.4339
    11.0608  11.2109

          k =-0.0718 0.0000-0.1020 ( 81920 PWs)   bands (ev):

   -56.2765 -56.2765 -56.2765 -56.2764 -56.2736 -56.2736 -56.2735 -56.2735
   -56.2588 -56.2588 -56.2587 -56.2587 -56.2537 -56.2536 -56.2536 -56.2535
   -56.2512 -56.2512 -56.2512 -56.2512 -56.2377 -56.2376 -56.2376 -56.2376
   -56.2256 -56.2255 -56.2255 -56.2255 -56.2219 -56.2219 -56.2219 -56.2218
   -56.2108 -56.2108 -56.2108 -56.2107 -56.2079 -56.2079 -56.2078 -56.2078
   -56.1927 -56.1927 -56.1926 -56.1926 -56.1917 -56.1917 -56.1917 -56.1917
   -56.1907 -56.1907 -56.1907 -56.1906 -56.1846 -56.1846 -56.1846 -56.1846
   -56.1816 -56.1816 -56.1816 -56.1816 -46.9321 -46.9320 -42.0680 -42.0680
   -41.7994 -41.7993 -41.7709 -41.7709 -20.7600 -20.7600 -20.7548 -20.7548
   -20.7545 -20.7544 -10.4803 -10.4803 -10.3527 -10.3527 -10.3223 -10.3223
   -10.2765 -10.2765 -10.2271 -10.2271 -10.1723 -10.1723  -0.0784  -0.0784
     0.1875   0.1875   0.3233   0.3233   0.3898   0.3898   0.6077   0.6077
     0.8610   0.8610   1.1777   1.1777   1.2973   1.2973   1.5676   1.5676
     1.6414   1.6414   1.6965   1.6965   1.8207   1.8207   1.8454   1.8454
     2.0435   2.0435   2.0947   2.0947   2.2797   2.2797   2.3080   2.3080
     2.4563   2.4563   7.1506   7.1507   7.2200   7.2201   7.2692   7.2693
     8.6308   8.6308   9.0232   9.0232   9.1835   9.1835   9.3156   9.3157
     9.5679   9.5679   9.7582   9.7582  10.0923  10.0923  10.3978  10.3978
    11.0404  11.0404

          k =-0.0718-0.0417-0.0255 ( 81848 PWs)   bands (ev):

   -56.2765 -56.2765 -56.2765 -56.2764 -56.2736 -56.2736 -56.2735 -56.2735
   -56.2588 -56.2588 -56.2587 -56.2587 -56.2537 -56.2536 -56.2536 -56.2536
   -56.2512 -56.2512 -56.2512 -56.2512 -56.2377 -56.2376 -56.2376 -56.2376
   -56.2255 -56.2255 -56.2255 -56.2255 -56.2219 -56.2219 -56.2219 -56.2218
   -56.2108 -56.2108 -56.2108 -56.2107 -56.2079 -56.2079 -56.2078 -56.2078
   -56.1927 -56.1927 -56.1926 -56.1926 -56.1917 -56.1917 -56.1917 -56.1917
   -56.1907 -56.1907 -56.1907 -56.1906 -56.1846 -56.1846 -56.1846 -56.1845
   -56.1816 -56.1816 -56.1816 -56.1816 -46.9321 -46.9320 -42.0680 -42.0680
   -41.7994 -41.7993 -41.7709 -41.7709 -20.7600 -20.7599 -20.7548 -20.7547
   -20.7545 -20.7544 -10.5268 -10.5268 -10.3908 -10.3908 -10.2877 -10.2877
   -10.2532 -10.2532 -10.2148 -10.2148 -10.1549 -10.1549   0.0168   0.0168
     0.2626   0.2626   0.4765   0.4765   0.6428   0.6428   0.6553   0.6553
     0.9198   0.9199   0.9806   0.9806   1.1996   1.1996   1.3247   1.3247
     1.4963   1.4963   1.5122   1.5123   1.7988   1.7988   1.8380   1.8380
     1.9975   1.9975   2.0771   2.0771   2.1527   2.1527   2.3123   2.3123
     2.4340   2.4340   7.2232   7.2232   7.3574   7.3574   7.4805   7.4805
     8.6070   8.6070   9.3405   9.3406   9.4573   9.4573   9.7267   9.7267
     9.7644   9.7644  10.0824  10.0825  10.6210  10.6210  10.7958  10.7958
    10.9533  10.9533

          k =-0.0718-0.0417 0.0127 ( 81930 PWs)   bands (ev):

   -56.2765 -56.2765 -56.2765 -56.2765 -56.2736 -56.2736 -56.2735 -56.2735
   -56.2588 -56.2588 -56.2587 -56.2587 -56.2537 -56.2536 -56.2536 -56.2536
   -56.2512 -56.2512 -56.2512 -56.2512 -56.2377 -56.2376 -56.2376 -56.2376
   -56.2256 -56.2255 -56.2255 -56.2255 -56.2219 -56.2219 -56.2219 -56.2218
   -56.2108 -56.2108 -56.2108 -56.2107 -56.2079 -56.2079 -56.2078 -56.2078
   -56.1927 -56.1927 -56.1926 -56.1926 -56.1917 -56.1917 -56.1917 -56.1917
   -56.1907 -56.1907 -56.1907 -56.1906 -56.1846 -56.1846 -56.1846 -56.1846
   -56.1816 -56.1816 -56.1816 -56.1816 -46.9321 -46.9320 -42.0680 -42.0680
   -41.7994 -41.7993 -41.7709 -41.7709 -20.7600 -20.7599 -20.7548 -20.7547
   -20.7545 -20.7544 -10.5037 -10.5037 -10.3760 -10.3760 -10.3130 -10.3129
   -10.2534 -10.2534 -10.2175 -10.2175 -10.1662 -10.1662  -0.1073  -0.1073
     0.2948   0.2948   0.3970   0.3970   0.5051   0.5051   0.6448   0.6449
     0.9471   0.9471   1.0697   1.0697   1.1992   1.1992   1.4826   1.4826
     1.5290   1.5290   1.6259   1.6259   1.7480   1.7480   1.9491   1.9491
     2.0526   2.0526   2.0929   2.0929   2.1530   2.1530   2.2654   2.2654
     2.4416   2.4416   7.1380   7.1380   7.3457   7.3457   7.4066   7.4067
     8.7565   8.7566   8.9619   8.9620   9.1948   9.1948   9.4876   9.4876
     9.7390   9.7390  10.1978  10.1978  10.5630  10.5631  10.7889  10.7890
    10.8743  10.8743

          k =-0.0718-0.0417-0.1020 ( 81840 PWs)   bands (ev):

   -56.2765 -56.2765 -56.2765 -56.2764 -56.2736 -56.2736 -56.2735 -56.2735
   -56.2588 -56.2588 -56.2587 -56.2587 -56.2537 -56.2536 -56.2536 -56.2535
   -56.2512 -56.2512 -56.2512 -56.2512 -56.2377 -56.2376 -56.2376 -56.2376
   -56.2256 -56.2255 -56.2255 -56.2255 -56.2219 -56.2219 -56.2219 -56.2218
   -56.2108 -56.2108 -56.2108 -56.2107 -56.2079 -56.2079 -56.2078 -56.2078
   -56.1927 -56.1927 -56.1926 -56.1926 -56.1917 -56.1917 -56.1917 -56.1917
   -56.1907 -56.1907 -56.1907 -56.1906 -56.1846 -56.1846 -56.1846 -56.1846
   -56.1816 -56.1816 -56.1816 -56.1816 -46.9321 -46.9320 -42.0680 -42.0680
   -41.7994 -41.7993 -41.7709 -41.7709 -20.7600 -20.7600 -20.7548 -20.7548
   -20.7545 -20.7544 -10.4658 -10.4657 -10.3870 -10.3870 -10.3269 -10.3268
   -10.2489 -10.2489 -10.2164 -10.2164 -10.1863 -10.1863  -0.2059  -0.2059
     0.2426   0.2426   0.3302   0.3302   0.4934   0.4934   0.6857   0.6857
     0.9556   0.9556   1.1118   1.1118   1.2147   1.2147   1.5199   1.5199
     1.5486   1.5486   1.6823   1.6823   1.7402   1.7402   1.9839   1.9840
     2.1133   2.1133   2.1358   2.1358   2.2726   2.2726   2.3063   2.3063
     2.3669   2.3669   7.0313   7.0313   7.2997   7.2998   7.3555   7.3555
     8.6869   8.6869   8.7785   8.7785   9.1450   9.1450   9.2486   9.2487
     9.7480   9.7480  10.1585  10.1585  10.6116  10.6116  10.7738  10.7738
    10.8714  10.8714

     the Fermi energy is     4.8540 ev

!    total energy              =   -6740.56179589 Ry

     total all-electron energy =   -114993.577754 Ry
     estimated scf accuracy    <          8.6E-09 Ry
     smearing contrib. (-TS)   =      -0.00000000 Ry
     internal energy E=F+TS    =   -6740.56179589 Ry

     The total energy is F=E-TS. E is the sum of the following terms:
     one-electron contribution =   -3515.77526823 Ry
     hartree contribution      =    1687.88641079 Ry
     xc contribution           =    -503.21487645 Ry
     ewald contribution        =   -1690.68325647 Ry
     one-center paw contrib.   =   -2718.77480554 Ry

     convergence has been achieved in   9 iterations

     Forces acting on atoms (cartesian axes, Ry/au):

     atom    1 type  1   force =     0.00000000   -0.00206172    0.00000000
     atom    2 type  1   force =     0.00000000    0.00042144    0.00000000
     atom    3 type  1   force =     0.00000000   -0.00039594    0.00000000
     atom    4 type  1   force =     0.00000000   -0.00206070    0.00000000
     atom    5 type  1   force =     0.00000000    0.00042690    0.00000000
     atom    6 type  1   force =     0.00000000   -0.00039850    0.00000000
     atom    7 type  2   force =     0.00000000    0.00081602    0.00000000
     atom    8 type  2   force =     0.00000000    0.00082047    0.00000000
     atom    9 type  3   force =     0.00087695    0.00150900    0.00388413
     atom   10 type  3   force =     0.00318505   -0.00240636    0.00127224
     atom   11 type  3   force =    -0.00318505   -0.00240636   -0.00127224
     atom   12 type  3   force =    -0.00087695    0.00150900   -0.00388413
     atom   13 type  3   force =    -0.00318124    0.00147719    0.00333098
     atom   14 type  3   force =     0.00318124    0.00147719   -0.00333098
     atom   15 type  3   force =     0.00087883    0.00148088    0.00392775
     atom   16 type  3   force =     0.00316156   -0.00236245    0.00125640
     atom   17 type  3   force =    -0.00316156   -0.00236245   -0.00125640
     atom   18 type  3   force =    -0.00087883    0.00148088   -0.00392775
     atom   19 type  3   force =    -0.00312724    0.00151777    0.00333468
     atom   20 type  3   force =     0.00312724    0.00151777   -0.00333468

     Total force =     0.015690     Total SCF correction =     0.000313


     Computing stress (Cartesian axis) and pressure

          total   stress  (Ry/bohr**3)                   (kbar)     P=       -4.91
  -0.00003655   0.00000000   0.00000130           -5.38        0.00        0.19
   0.00000000  -0.00003807   0.00000000            0.00       -5.60        0.00
   0.00000130   0.00000000  -0.00002558            0.19        0.00       -3.76


     BFGS Geometry Optimization
     Energy error            =      0.0E+00
     Gradient error          =      3.9E-03
     Cell gradient error     =      3.8E-05


     number of scf cycles    =   1
     number of bfgs steps    =   0

     enthalpy new            =   -6740.5617958914 Ry

     new trust radius        =       0.0115600804 bohr
     new conv_thr            =       0.0000000100 Ry

     new unit-cell volume =   3679.06998 a.u.^3 (   545.18192 Ang^3 )
     density =      4.06624 g/cm^3

CELL_PARAMETERS (alat=  1.88972612)
   6.960988902   0.000000000   0.000227120
   0.000000000  11.987460205   0.000000000
  -2.322385447   0.000000000   6.533385607

ATOMIC_POSITIONS (crystal)
Li            0.5000000000        0.8296890736        0.0000000000
Li            0.5000000000        0.1681505862        0.0000000000
Li            0.5000000000        0.6570975380        0.5000000000
Li            0.0000000000        0.3296891184        0.0000000000
Li            0.0000000000        0.6681508273        0.0000000000
Li           -0.0000000000        0.1570974254        0.5000000000
Er            0.5000000000        0.4975819881        0.0000000000
Er            0.0000000000        0.9975821847        0.0000000000
Br            0.7509225057        0.8299895502        0.7675443934
Br            0.7661757674        0.1653643741        0.7535549788
Br            0.2338242326        0.1653643741        0.2464450212
Br            0.2490774943        0.8299895502        0.2324556066
Br            0.2517008432        0.0058856474        0.7615446201
Br            0.7482991568        0.0058856474        0.2384553799
Br            0.2509238265        0.3299883100        0.7675479241
Br            0.2661735558        0.6653663106        0.7535536972
Br            0.7338264442        0.6653663106        0.2464463028
Br            0.7490761735        0.3299883100        0.2324520759
Br            0.7517050445        0.5058874369        0.7615449192
Br            0.2482949555        0.5058874369        0.2384550808



     Writing output data file ./Li3ErBr6_mp-1222492_conventional_standard_vc-relax.save/
     charge density from previous step
     extrapolated charge  243.38923, renormalised to  244.00000

     total cpu time spent up to now is      195.8 secs

     Self-consistent Calculation

     iteration #  1     ecut=   120.00 Ry     beta= 0.40
     Davidson diagonalization with overlap
     c_bands:  1 eigenvalues not converged
     ethr =  1.00E-06,  avg # of iterations =  8.7

     total cpu time spent up to now is      229.7 secs

     total energy              =   -6740.53537711 Ry
     estimated scf accuracy    <       0.18306285 Ry

     iteration #  2     ecut=   120.00 Ry     beta= 0.40
     Davidson diagonalization with overlap
     ethr =  7.50E-05,  avg # of iterations =  2.0

     total cpu time spent up to now is      244.9 secs

     total energy              =   -6740.56189442 Ry
     estimated scf accuracy    <       0.02645285 Ry

     iteration #  3     ecut=   120.00 Ry     beta= 0.40
     Davidson diagonalization with overlap
     ethr =  1.08E-05,  avg # of iterations =  2.0

     total cpu time spent up to now is      259.1 secs

     total energy              =   -6740.56128611 Ry
     estimated scf accuracy    <       0.00565099 Ry

     iteration #  4     ecut=   120.00 Ry     beta= 0.40
     Davidson diagonalization with overlap
     ethr =  2.32E-06,  avg # of iterations =  3.6

     total cpu time spent up to now is      275.2 secs

     total energy              =   -6740.56199826 Ry
     estimated scf accuracy    <       0.00141643 Ry

     iteration #  5     ecut=   120.00 Ry     beta= 0.40
     Davidson diagonalization with overlap
     ethr =  5.81E-07,  avg # of iterations =  2.0

     total cpu time spent up to now is      289.4 secs

     total energy              =   -6740.56225445 Ry
     estimated scf accuracy    <       0.00092368 Ry

     iteration #  6     ecut=   120.00 Ry     beta= 0.40
     Davidson diagonalization with overlap
     ethr =  3.79E-07,  avg # of iterations =  2.0

     total cpu time spent up to now is      303.0 secs

     total energy              =   -6740.56228082 Ry
     estimated scf accuracy    <       0.00034825 Ry

     iteration #  7     ecut=   120.00 Ry     beta= 0.40
     Davidson diagonalization with overlap
     ethr =  1.43E-07,  avg # of iterations =  2.0

     total cpu time spent up to now is      316.5 secs

     total energy              =   -6740.56229343 Ry
     estimated scf accuracy    <       0.00000817 Ry

     iteration #  8     ecut=   120.00 Ry     beta= 0.40
     Davidson diagonalization with overlap
     ethr =  3.35E-09,  avg # of iterations =  3.0

     total cpu time spent up to now is      332.1 secs

     total energy              =   -6740.56229462 Ry
     estimated scf accuracy    <       0.00000101 Ry

     iteration #  9     ecut=   120.00 Ry     beta= 0.40
     Davidson diagonalization with overlap
     ethr =  4.13E-10,  avg # of iterations =  2.0

     total cpu time spent up to now is      347.8 secs

     total energy              =   -6740.56229472 Ry
     estimated scf accuracy    <       0.00000012 Ry

     iteration # 10     ecut=   120.00 Ry     beta= 0.40
     Davidson diagonalization with overlap
     ethr =  4.85E-11,  avg # of iterations =  2.0

     total cpu time spent up to now is      363.3 secs

     End of self-consistent calculation

          k = 0.0000 0.0000 0.0000 ( 81869 PWs)   bands (ev):

   -56.2560 -56.2559 -56.2559 -56.2559 -56.2530 -56.2530 -56.2530 -56.2530
   -56.2383 -56.2383 -56.2383 -56.2383 -56.2335 -56.2334 -56.2334 -56.2334
   -56.2310 -56.2310 -56.2310 -56.2309 -56.2166 -56.2166 -56.2165 -56.2164
   -56.2046 -56.2046 -56.2044 -56.2044 -56.2009 -56.2009 -56.2008 -56.2008
   -56.1910 -56.1909 -56.1909 -56.1909 -56.1880 -56.1880 -56.1880 -56.1880
   -56.1720 -56.1720 -56.1719 -56.1718 -56.1710 -56.1710 -56.1709 -56.1709
   -56.1709 -56.1709 -56.1709 -56.1708 -56.1651 -56.1651 -56.1650 -56.1650
   -56.1621 -56.1621 -56.1620 -56.1620 -46.8865 -46.8862 -42.0414 -42.0414
   -41.7723 -41.7723 -41.7438 -41.7437 -20.7184 -20.7182 -20.7133 -20.7133
   -20.7131 -20.7129 -10.7081 -10.5261 -10.3770 -10.2710 -10.2603 -10.2509
   -10.2193 -10.2146 -10.2072 -10.1410 -10.1355 -10.1099  -0.1549  -0.1460
     0.2297   0.2565   0.2766   0.4178   0.4674   0.6353   0.6885   0.7566
     0.8773   0.8778   0.8896   1.0155   1.1392   1.2571   1.2813   1.2843
     1.2904   1.5012   1.5406   1.7140   1.7584   1.9567   1.9992   2.0385
     2.0740   2.0948   2.2076   2.2605   2.3530   2.4831   2.5502   2.5503
     2.5941   2.6008   7.0774   7.3351   7.4805   7.4993   7.5005   7.5540
     7.5832   8.7522   8.7777   8.8353   9.1465   9.2070   9.4097   9.4441
     9.5103   9.7624   9.9463  10.3405  10.3529  10.4046  10.7006  10.8892
    10.9788  11.1312

          k =-0.0000 0.0000 0.0383 ( 81853 PWs)   bands (ev):

   -56.2560 -56.2559 -56.2559 -56.2559 -56.2530 -56.2530 -56.2530 -56.2530
   -56.2383 -56.2383 -56.2383 -56.2383 -56.2335 -56.2334 -56.2334 -56.2334
   -56.2310 -56.2310 -56.2310 -56.2309 -56.2166 -56.2166 -56.2165 -56.2164
   -56.2046 -56.2046 -56.2044 -56.2044 -56.2009 -56.2009 -56.2008 -56.2008
   -56.1910 -56.1909 -56.1909 -56.1909 -56.1880 -56.1880 -56.1880 -56.1880
   -56.1720 -56.1720 -56.1719 -56.1718 -56.1710 -56.1710 -56.1709 -56.1709
   -56.1709 -56.1709 -56.1709 -56.1708 -56.1651 -56.1651 -56.1650 -56.1650
   -56.1621 -56.1621 -56.1620 -56.1620 -46.8865 -46.8862 -42.0414 -42.0414
   -41.7723 -41.7723 -41.7438 -41.7437 -20.7184 -20.7182 -20.7134 -20.7133
   -20.7131 -20.7129 -10.6620 -10.4912 -10.3579 -10.2923 -10.2748 -10.2699
   -10.2391 -10.2233 -10.2043 -10.1586 -10.1469 -10.1139  -0.0601   0.0329
     0.2658   0.3026   0.3406   0.3801   0.4554   0.5254   0.6970   0.8323
     0.8399   0.9560   0.9666   1.0618   1.0884   1.2153   1.2940   1.3287
     1.4439   1.4596   1.4661   1.6278   1.8038   1.9614   1.9723   2.0412
     2.0720   2.1184   2.1502   2.1852   2.2689   2.2713   2.3425   2.4802
     2.5159   2.5253   7.2000   7.2982   7.3451   7.4185   7.5265   7.5823
     8.1001   8.8393   8.8839   8.9179   9.1915   9.3435   9.3840   9.5563
     9.8224   9.8934  10.1636  10.2441  10.4233  10.6939  10.7323  10.8848
    10.9926  10.9937

          k = 0.0000 0.0000-0.0765 ( 81848 PWs)   bands (ev):

   -56.2560 -56.2559 -56.2559 -56.2559 -56.2530 -56.2530 -56.2530 -56.2530
   -56.2383 -56.2383 -56.2383 -56.2383 -56.2334 -56.2334 -56.2334 -56.2334
   -56.2310 -56.2310 -56.2310 -56.2309 -56.2166 -56.2166 -56.2165 -56.2165
   -56.2046 -56.2046 -56.2044 -56.2044 -56.2009 -56.2009 -56.2008 -56.2008
   -56.1910 -56.1909 -56.1909 -56.1909 -56.1880 -56.1880 -56.1880 -56.1880
   -56.1720 -56.1720 -56.1719 -56.1718 -56.1710 -56.1710 -56.1709 -56.1709
   -56.1709 -56.1709 -56.1709 -56.1708 -56.1651 -56.1651 -56.1650 -56.1650
   -56.1621 -56.1621 -56.1620 -56.1620 -46.8865 -46.8862 -42.0414 -42.0414
   -41.7723 -41.7723 -41.7438 -41.7437 -20.7185 -20.7182 -20.7134 -20.7133
   -20.7132 -20.7129 -10.5967 -10.4429 -10.3618 -10.3274 -10.3017 -10.2677
   -10.2558 -10.2388 -10.2231 -10.1643 -10.1442 -10.1231   0.0393   0.1976
     0.2037   0.2601   0.4065   0.5102   0.5972   0.6876   0.6987   0.7516
     0.7955   0.9650   1.0061   1.0602   1.1136   1.2257   1.2872   1.3760
     1.4067   1.4716   1.4792   1.5506   1.6883   1.8147   1.9056   1.9207
     1.9715   2.0887   2.1440   2.1510   2.1650   2.3088   2.3207   2.3555
     2.4787   2.4825   7.2224   7.2467   7.2819   7.3609   7.5219   7.6134
     8.6782   8.8255   8.9473   9.1185   9.2356   9.4954   9.9183   9.9762
    10.0002  10.0683  10.0818  10.2157  10.2832  10.3336  10.8086  10.8459
    11.0029  11.0109

          k = 0.0000-0.0417 0.0000 ( 81836 PWs)   bands (ev):

   -56.2560 -56.2559 -56.2559 -56.2559 -56.2530 -56.2530 -56.2530 -56.2530
   -56.2383 -56.2383 -56.2383 -56.2383 -56.2335 -56.2334 -56.2334 -56.2334
   -56.2310 -56.2310 -56.2310 -56.2309 -56.2166 -56.2166 -56.2165 -56.2164
   -56.2046 -56.2046 -56.2044 -56.2044 -56.2009 -56.2009 -56.2008 -56.2007
   -56.1910 -56.1909 -56.1909 -56.1909 -56.1880 -56.1880 -56.1880 -56.1880
   -56.1720 -56.1720 -56.1719 -56.1718 -56.1710 -56.1710 -56.1709 -56.1709
   -56.1709 -56.1709 -56.1709 -56.1708 -56.1651 -56.1651 -56.1650 -56.1650
   -56.1621 -56.1621 -56.1620 -56.1620 -46.8865 -46.8862 -42.0414 -42.0414
   -41.7723 -41.7723 -41.7438 -41.7437 -20.7184 -20.7182 -20.7133 -20.7132
   -20.7131 -20.7130 -10.6394 -10.6394 -10.3000 -10.3000 -10.2717 -10.2717
   -10.1762 -10.1762 -10.1629 -10.1629 -10.1602 -10.1601  -0.1091  -0.1090
     0.1154   0.1154   0.3498   0.3498   0.5225   0.5225   0.7277   0.7278
     0.8651   0.8652   1.0812   1.0812   1.1563   1.1563   1.3402   1.3403
     1.4443   1.4443   1.7735   1.7735   1.8853   1.8854   1.9584   1.9585
     1.9954   1.9954   2.2993   2.2993   2.3466   2.3467   2.4345   2.4346
     2.5678   2.5679   7.3031   7.3032   7.4891   7.4892   7.5157   7.5159
     8.1416   8.1417   8.9242   8.9242   9.1393   9.1395   9.3927   9.3927
     9.6051   9.6052  10.1745  10.1746  10.2783  10.2783  10.8493  10.8494
    11.1583  11.1584

          k =-0.0000-0.0417 0.0383 ( 81822 PWs)   bands (ev):

   -56.2560 -56.2559 -56.2559 -56.2559 -56.2530 -56.2530 -56.2530 -56.2530
   -56.2383 -56.2383 -56.2383 -56.2383 -56.2335 -56.2334 -56.2334 -56.2334
   -56.2310 -56.2310 -56.2310 -56.2309 -56.2166 -56.2166 -56.2165 -56.2164
   -56.2046 -56.2046 -56.2044 -56.2044 -56.2009 -56.2009 -56.2008 -56.2008
   -56.1910 -56.1909 -56.1909 -56.1909 -56.1880 -56.1880 -56.1880 -56.1880
   -56.1720 -56.1720 -56.1719 -56.1718 -56.1710 -56.1710 -56.1709 -56.1709
   -56.1709 -56.1709 -56.1709 -56.1708 -56.1651 -56.1651 -56.1650 -56.1650
   -56.1621 -56.1621 -56.1620 -56.1620 -46.8865 -46.8862 -42.0414 -42.0414
   -41.7723 -41.7723 -41.7438 -41.7437 -20.7184 -20.7182 -20.7134 -20.7132
   -20.7131 -20.7130 -10.5971 -10.5971 -10.3078 -10.3077 -10.2797 -10.2796
   -10.1927 -10.1927 -10.1882 -10.1881 -10.1517 -10.1517  -0.0164  -0.0164
     0.2391   0.2391   0.3765   0.3765   0.4874   0.4875   0.6191   0.6191
     0.9476   0.9476   1.0595   1.0595   1.2527   1.2527   1.3669   1.3669
     1.5678   1.5678   1.6816   1.6816   1.7982   1.7982   1.8985   1.8985
     1.9897   1.9897   2.1724   2.1724   2.2820   2.2821   2.3870   2.3870
     2.4592   2.4593   7.3618   7.3620   7.4105   7.4107   7.4752   7.4754
     8.4766   8.4766   8.9694   8.9694   9.2960   9.2962   9.6645   9.6645
     9.9253   9.9254   9.9830   9.9831  10.5206  10.5207  10.6024  10.6024
    10.9641  10.9642

          k = 0.0000-0.0417-0.0765 ( 81832 PWs)   bands (ev):

   -56.2560 -56.2559 -56.2559 -56.2559 -56.2530 -56.2530 -56.2530 -56.2530
   -56.2383 -56.2383 -56.2383 -56.2383 -56.2334 -56.2334 -56.2334 -56.2334
   -56.2310 -56.2310 -56.2310 -56.2309 -56.2166 -56.2166 -56.2165 -56.2165
   -56.2046 -56.2046 -56.2044 -56.2044 -56.2009 -56.2009 -56.2008 -56.2008
   -56.1910 -56.1909 -56.1909 -56.1909 -56.1880 -56.1880 -56.1880 -56.1880
   -56.1720 -56.1720 -56.1719 -56.1718 -56.1710 -56.1710 -56.1709 -56.1709
   -56.1709 -56.1709 -56.1709 -56.1708 -56.1651 -56.1651 -56.1650 -56.1650
   -56.1621 -56.1621 -56.1620 -56.1620 -46.8865 -46.8862 -42.0414 -42.0414
   -41.7723 -41.7723 -41.7438 -41.7437 -20.7185 -20.7182 -20.7134 -20.7132
   -20.7132 -20.7130 -10.5363 -10.5362 -10.3511 -10.3511 -10.2827 -10.2826
   -10.2140 -10.2140 -10.1750 -10.1749 -10.1647 -10.1647   0.0681   0.0682
     0.2552   0.2553   0.3851   0.3852   0.6162   0.6162   0.7600   0.7601
     0.9976   0.9977   0.9991   0.9992   1.2577   1.2578   1.2629   1.2630
     1.5091   1.5091   1.5787   1.5787   1.8258   1.8259   1.9164   1.9164
     2.0037   2.0037   2.0168   2.0168   2.2184   2.2185   2.3123   2.3123
     2.4173   2.4173   7.3159   7.3161   7.3773   7.3774   7.5046   7.5048
     8.6319   8.6320   9.2461   9.2462   9.5437   9.5438   9.8335   9.8335
    10.0461  10.0461  10.0500  10.0500  10.5582  10.5582  10.6264  10.6265
    11.2102  11.2104

          k = 0.0359 0.0000 0.0128 ( 81891 PWs)   bands (ev):

   -56.2560 -56.2559 -56.2559 -56.2559 -56.2530 -56.2530 -56.2530 -56.2530
   -56.2383 -56.2383 -56.2383 -56.2383 -56.2335 -56.2334 -56.2334 -56.2334
   -56.2310 -56.2310 -56.2310 -56.2309 -56.2166 -56.2166 -56.2165 -56.2165
   -56.2046 -56.2046 -56.2044 -56.2044 -56.2009 -56.2009 -56.2008 -56.2008
   -56.1910 -56.1909 -56.1909 -56.1909 -56.1880 -56.1880 -56.1880 -56.1880
   -56.1720 -56.1720 -56.1719 -56.1718 -56.1710 -56.1710 -56.1709 -56.1709
   -56.1709 -56.1709 -56.1709 -56.1708 -56.1651 -56.1651 -56.1650 -56.1650
   -56.1621 -56.1621 -56.1620 -56.1620 -46.8865 -46.8862 -42.0414 -42.0414
   -41.7723 -41.7723 -41.7438 -41.7437 -20.7184 -20.7182 -20.7134 -20.7133
   -20.7132 -20.7130 -10.6519 -10.4900 -10.3583 -10.3149 -10.2802 -10.2583
   -10.2269 -10.2250 -10.2018 -10.1710 -10.1346 -10.1216  -0.0774   0.0636
     0.2889   0.2898   0.3570   0.4075   0.4638   0.5456   0.7172   0.7711
     0.8495   0.8554   0.9091   0.9841   1.0561   1.1509   1.3698   1.3798
     1.4198   1.5276   1.6491   1.7042   1.8297   1.8636   1.9470   2.0309
     2.0317   2.1137   2.1543   2.1713   2.2473   2.2607   2.3455   2.4953
     2.5063   2.5462   7.1938   7.3708   7.4194   7.4265   7.4565   7.4834
     8.0978   8.8714   8.9394   9.0033   9.0734   9.0777   9.4564   9.7378
     9.7475   9.9761  10.1263  10.2404  10.4294  10.5756  10.6638  10.8395
    11.0206  11.1281

          k = 0.0359 0.0000 0.0510 ( 81828 PWs)   bands (ev):

   -56.2559 -56.2559 -56.2559 -56.2559 -56.2530 -56.2530 -56.2530 -56.2530
   -56.2383 -56.2383 -56.2383 -56.2383 -56.2334 -56.2334 -56.2334 -56.2334
   -56.2310 -56.2310 -56.2310 -56.2309 -56.2166 -56.2166 -56.2165 -56.2164
   -56.2046 -56.2046 -56.2044 -56.2044 -56.2009 -56.2009 -56.2008 -56.2008
   -56.1910 -56.1909 -56.1909 -56.1909 -56.1880 -56.1880 -56.1880 -56.1880
   -56.1720 -56.1720 -56.1719 -56.1718 -56.1710 -56.1710 -56.1709 -56.1709
   -56.1709 -56.1709 -56.1709 -56.1708 -56.1651 -56.1651 -56.1650 -56.1650
   -56.1621 -56.1621 -56.1620 -56.1620 -46.8865 -46.8862 -42.0414 -42.0414
   -41.7723 -41.7723 -41.7438 -41.7437 -20.7184 -20.7182 -20.7134 -20.7133
   -20.7132 -20.7130 -10.5882 -10.4484 -10.3470 -10.3231 -10.3174 -10.2627
   -10.2495 -10.2357 -10.2328 -10.1779 -10.1420 -10.1232   0.0892   0.1429
     0.2459   0.2835   0.4841   0.4996   0.5568   0.5926   0.6522   0.7561
     0.7689   0.9077   1.0632   1.0694   1.0731   1.1781   1.2911   1.3031
     1.3599   1.4519   1.5982   1.7071   1.7763   1.8867   1.9552   1.9776
     2.0146   2.0222   2.0931   2.1600   2.2389   2.2454   2.2525   2.2807
     2.3922   2.5122   7.2223   7.2748   7.3898   7.4007   7.5029   7.5136
     8.6832   8.7230   8.9985   9.0452   9.0610   9.5377   9.6094   9.8224
     9.9188  10.0442  10.1531  10.2825  10.2862  10.5446  10.5950  10.8344
    11.1182  11.3303

          k = 0.0359 0.0000-0.0638 ( 81869 PWs)   bands (ev):

   -56.2560 -56.2559 -56.2559 -56.2559 -56.2530 -56.2530 -56.2530 -56.2530
   -56.2383 -56.2383 -56.2383 -56.2383 -56.2335 -56.2334 -56.2334 -56.2334
   -56.2310 -56.2310 -56.2310 -56.2309 -56.2166 -56.2166 -56.2165 -56.2164
   -56.2046 -56.2046 -56.2044 -56.2044 -56.2009 -56.2009 -56.2008 -56.2008
   -56.1910 -56.1909 -56.1909 -56.1909 -56.1880 -56.1880 -56.1880 -56.1880
   -56.1720 -56.1720 -56.1719 -56.1718 -56.1710 -56.1710 -56.1709 -56.1709
   -56.1709 -56.1709 -56.1709 -56.1708 -56.1651 -56.1651 -56.1650 -56.1650
   -56.1621 -56.1621 -56.1620 -56.1620 -46.8865 -46.8862 -42.0414 -42.0414
   -41.7723 -41.7723 -41.7438 -41.7437 -20.7184 -20.7182 -20.7135 -20.7133
   -20.7132 -20.7130 -10.5594 -10.4175 -10.3474 -10.3425 -10.2945 -10.2817
   -10.2761 -10.2430 -10.2335 -10.1570 -10.1514 -10.1469   0.0045   0.0083
     0.2227   0.2344   0.4100   0.4262   0.4922   0.5661   0.5903   0.6794
     0.7310   0.9362   1.1006   1.1301   1.2047   1.2762   1.4036   1.4715
     1.4721   1.6558   1.7320   1.7320   1.7849   1.8828   1.9053   1.9098
     1.9789   2.0104   2.0831   2.1620   2.2136   2.2825   2.3036   2.3199
     2.4464   2.4945   7.1448   7.2292   7.3017   7.3213   7.4081   7.4901
     8.6982   8.7611   9.1353   9.1751   9.1984   9.2772   9.5504   9.5776
     9.7163   9.8729   9.9140  10.0294  10.0823  10.1409  10.3585  10.4962
    11.0757  11.2369

          k = 0.0359 0.0000-0.0255 ( 81890 PWs)   bands (ev):

   -56.2560 -56.2559 -56.2559 -56.2559 -56.2530 -56.2530 -56.2530 -56.2530
   -56.2383 -56.2383 -56.2383 -56.2383 -56.2335 -56.2334 -56.2334 -56.2334
   -56.2310 -56.2310 -56.2310 -56.2309 -56.2166 -56.2166 -56.2165 -56.2164
   -56.2046 -56.2046 -56.2044 -56.2044 -56.2009 -56.2009 -56.2008 -56.2007
   -56.1910 -56.1909 -56.1909 -56.1909 -56.1880 -56.1880 -56.1880 -56.1880
   -56.1720 -56.1720 -56.1719 -56.1718 -56.1710 -56.1710 -56.1709 -56.1709
   -56.1709 -56.1709 -56.1709 -56.1708 -56.1651 -56.1651 -56.1650 -56.1650
   -56.1621 -56.1621 -56.1620 -56.1620 -46.8865 -46.8862 -42.0414 -42.0414
   -41.7723 -41.7723 -41.7438 -41.7437 -20.7184 -20.7182 -20.7134 -20.7133
   -20.7132 -20.7130 -10.6341 -10.4713 -10.3464 -10.2992 -10.2920 -10.2616
   -10.2495 -10.2282 -10.2108 -10.1628 -10.1442 -10.1374  -0.1194  -0.0113
     0.2050   0.2674   0.3075   0.3622   0.4133   0.4343   0.5530   0.6400
     0.7369   0.9132   1.0707   1.1149   1.2557   1.3330   1.3851   1.4600
     1.5993   1.7023   1.7197   1.7855   1.8106   1.8232   1.8701   1.9598
     2.0272   2.0818   2.1416   2.1655   2.3361   2.3597   2.4201   2.4357
     2.4866   2.5592   7.1381   7.2672   7.2891   7.3745   7.4026   7.4546
     8.1286   8.7481   8.9576   9.0481   9.2132   9.3126   9.4657   9.5616
     9.5958   9.7835   9.8238   9.9734   9.9947  10.2403  10.2588  10.3452
    10.8785  11.2212

          k = 0.0359-0.0417 0.0128 ( 81838 PWs)   bands (ev):

   -56.2560 -56.2559 -56.2559 -56.2559 -56.2530 -56.2530 -56.2530 -56.2530
   -56.2383 -56.2383 -56.2383 -56.2383 -56.2334 -56.2334 -56.2334 -56.2334
   -56.2310 -56.2310 -56.2310 -56.2309 -56.2166 -56.2166 -56.2165 -56.2164
   -56.2046 -56.2046 -56.2044 -56.2044 -56.2009 -56.2009 -56.2008 -56.2008
   -56.1910 -56.1909 -56.1909 -56.1909 -56.1880 -56.1880 -56.1880 -56.1880
   -56.1720 -56.1720 -56.1719 -56.1718 -56.1710 -56.1710 -56.1709 -56.1709
   -56.1709 -56.1709 -56.1709 -56.1708 -56.1651 -56.1651 -56.1650 -56.1650
   -56.1621 -56.1621 -56.1620 -56.1620 -46.8865 -46.8862 -42.0414 -42.0414
   -41.7723 -41.7723 -41.7438 -41.7437 -20.7184 -20.7182 -20.7134 -20.7133
   -20.7131 -20.7130 -10.5908 -10.5908 -10.3012 -10.3012 -10.2876 -10.2876
   -10.2153 -10.2153 -10.1803 -10.1803 -10.1420 -10.1420  -0.0136  -0.0135
     0.2537   0.2538   0.3327   0.3328   0.5436   0.5436   0.6083   0.6083
     0.8998   0.8998   1.0760   1.0760   1.2913   1.2914   1.3943   1.3944
     1.5071   1.5071   1.6906   1.6906   1.7362   1.7362   1.8858   1.8859
     2.0540   2.0541   2.1464   2.1464   2.3269   2.3269   2.3676   2.3676
     2.4700   2.4700   7.3673   7.3674   7.4290   7.4291   7.4449   7.4450
     8.4496   8.4496   9.0605   9.0605   9.1718   9.1719   9.6368   9.6368
     9.8911   9.8912  10.1770  10.1771  10.4143  10.4143  10.5620  10.5620
    11.0946  11.0947

          k = 0.0359-0.0417 0.0510 ( 81892 PWs)   bands (ev):

   -56.2560 -56.2559 -56.2559 -56.2559 -56.2530 -56.2530 -56.2530 -56.2530
   -56.2383 -56.2383 -56.2383 -56.2383 -56.2334 -56.2334 -56.2334 -56.2334
   -56.2310 -56.2310 -56.2310 -56.2310 -56.2166 -56.2166 -56.2165 -56.2165
   -56.2046 -56.2046 -56.2044 -56.2044 -56.2009 -56.2009 -56.2008 -56.2008
   -56.1910 -56.1909 -56.1909 -56.1909 -56.1880 -56.1880 -56.1880 -56.1880
   -56.1720 -56.1720 -56.1719 -56.1718 -56.1710 -56.1710 -56.1709 -56.1709
   -56.1709 -56.1709 -56.1709 -56.1708 -56.1651 -56.1651 -56.1650 -56.1650
   -56.1621 -56.1621 -56.1620 -56.1620 -46.8865 -46.8862 -42.0414 -42.0414
   -41.7723 -41.7723 -41.7438 -41.7437 -20.7184 -20.7182 -20.7134 -20.7133
   -20.7132 -20.7130 -10.5347 -10.5347 -10.3244 -10.3244 -10.2910 -10.2909
   -10.2323 -10.2323 -10.2059 -10.2059 -10.1357 -10.1357   0.0447   0.0448
     0.3023   0.3023   0.4398   0.4398   0.6034   0.6034   0.6954   0.6954
     0.8574   0.8574   1.0249   1.0249   1.2023   1.2023   1.4895   1.4895
     1.5598   1.5599   1.6197   1.6197   1.6867   1.6868   1.8354   1.8354
     1.9778   1.9778   2.1355   2.1356   2.2439   2.2440   2.3094   2.3095
     2.3757   2.3757   7.3216   7.3217   7.3926   7.3927   7.5010   7.5011
     8.5971   8.5972   9.1472   9.1473   9.5318   9.5318   9.8377   9.8377
     9.9043   9.9043  10.1791  10.1791  10.2963  10.2964  10.6429  10.6429
    11.1606  11.1607

          k = 0.0359-0.0417-0.0638 ( 81890 PWs)   bands (ev):

   -56.2560 -56.2559 -56.2559 -56.2559 -56.2530 -56.2530 -56.2530 -56.2530
   -56.2383 -56.2383 -56.2383 -56.2383 -56.2334 -56.2334 -56.2334 -56.2334
   -56.2310 -56.2310 -56.2310 -56.2309 -56.2166 -56.2166 -56.2165 -56.2164
   -56.2046 -56.2046 -56.2044 -56.2044 -56.2009 -56.2009 -56.2008 -56.2008
   -56.1910 -56.1909 -56.1909 -56.1909 -56.1880 -56.1880 -56.1880 -56.1880
   -56.1720 -56.1720 -56.1719 -56.1718 -56.1710 -56.1710 -56.1709 -56.1709
   -56.1709 -56.1709 -56.1709 -56.1708 -56.1651 -56.1651 -56.1650 -56.1650
   -56.1621 -56.1621 -56.1620 -56.1620 -46.8865 -46.8862 -42.0414 -42.0414
   -41.7723 -41.7723 -41.7438 -41.7437 -20.7184 -20.7182 -20.7135 -20.7133
   -20.7132 -20.7130 -10.5042 -10.5042 -10.3427 -10.3427 -10.2999 -10.2999
   -10.2226 -10.2226 -10.1989 -10.1989 -10.1571 -10.1571  -0.0883  -0.0883
     0.3180   0.3180   0.3587   0.3587   0.5561   0.5561   0.6568   0.6568
     0.8918   0.8918   1.1361   1.1362   1.2792   1.2792   1.4692   1.4693
     1.5642   1.5642   1.6453   1.6453   1.8005   1.8005   1.9167   1.9167
     2.0310   2.0310   2.1108   2.1108   2.1995   2.1996   2.3058   2.3058
     2.4464   2.4465   7.1993   7.1993   7.3614   7.3615   7.4331   7.4332
     8.7395   8.7396   9.0773   9.0773   9.3206   9.3206   9.4951   9.4952
     9.6889   9.6889  10.2626  10.2627  10.5675  10.5676  10.7455  10.7455
    10.9402  10.9402

          k = 0.0359-0.0417-0.0255 ( 81864 PWs)   bands (ev):

   -56.2560 -56.2559 -56.2559 -56.2559 -56.2530 -56.2530 -56.2530 -56.2530
   -56.2383 -56.2383 -56.2383 -56.2383 -56.2335 -56.2334 -56.2334 -56.2333
   -56.2310 -56.2310 -56.2310 -56.2309 -56.2166 -56.2166 -56.2165 -56.2164
   -56.2046 -56.2046 -56.2044 -56.2044 -56.2009 -56.2009 -56.2008 -56.2007
   -56.1910 -56.1909 -56.1909 -56.1909 -56.1880 -56.1880 -56.1880 -56.1880
   -56.1720 -56.1720 -56.1719 -56.1718 -56.1710 -56.1710 -56.1709 -56.1709
   -56.1709 -56.1709 -56.1709 -56.1708 -56.1651 -56.1651 -56.1650 -56.1650
   -56.1621 -56.1621 -56.1620 -56.1620 -46.8865 -46.8862 -42.0414 -42.0414
   -41.7723 -41.7723 -41.7438 -41.7437 -20.7184 -20.7182 -20.7134 -20.7133
   -20.7132 -20.7130 -10.5724 -10.5723 -10.3111 -10.3111 -10.2788 -10.2788
   -10.2094 -10.2093 -10.1826 -10.1826 -10.1646 -10.1645  -0.1083  -0.1082
     0.2320   0.2321   0.3273   0.3274   0.4461   0.4462   0.5044   0.5044
     0.9820   0.9820   1.1735   1.1736   1.3829   1.3829   1.5092   1.5092
     1.5362   1.5362   1.6457   1.6457   1.7532   1.7533   1.9475   1.9475
     2.0426   2.0427   2.1151   2.1152   2.3654   2.3654   2.4337   2.4337
     2.4791   2.4791   7.2631   7.2631   7.3242   7.3243   7.4137   7.4138
     8.5648   8.5649   8.8953   8.8953   9.1445   9.1445   9.5927   9.5928
     9.7469   9.7470  10.1119  10.1120  10.2294  10.2294  10.3134  10.3134
    11.0433  11.0433

          k =-0.0718 0.0000-0.0255 ( 81844 PWs)   bands (ev):

   -56.2559 -56.2559 -56.2559 -56.2559 -56.2530 -56.2530 -56.2530 -56.2530
   -56.2383 -56.2383 -56.2383 -56.2383 -56.2334 -56.2334 -56.2334 -56.2334
   -56.2310 -56.2310 -56.2310 -56.2310 -56.2166 -56.2166 -56.2165 -56.2165
   -56.2046 -56.2046 -56.2044 -56.2044 -56.2009 -56.2009 -56.2008 -56.2008
   -56.1910 -56.1909 -56.1909 -56.1909 -56.1880 -56.1880 -56.1880 -56.1880
   -56.1720 -56.1720 -56.1719 -56.1718 -56.1710 -56.1710 -56.1709 -56.1709
   -56.1709 -56.1709 -56.1709 -56.1708 -56.1651 -56.1651 -56.1650 -56.1650
   -56.1621 -56.1621 -56.1620 -56.1620 -46.8865 -46.8862 -42.0414 -42.0414
   -41.7723 -41.7723 -41.7438 -41.7437 -20.7184 -20.7182 -20.7135 -20.7133
   -20.7132 -20.7130 -10.5201 -10.5201 -10.3301 -10.3301 -10.3059 -10.3059
   -10.2525 -10.2524 -10.1740 -10.1740 -10.1416 -10.1415   0.0801   0.0801
     0.3916   0.3917   0.4392   0.4392   0.5210   0.5211   0.7476   0.7477
     0.8522   0.8523   1.0215   1.0215   1.1359   1.1359   1.1630   1.1630
     1.6084   1.6084   1.6926   1.6927   1.7358   1.7358   1.8567   1.8567
     2.0656   2.0656   2.0820   2.0820   2.2182   2.2182   2.3854   2.3855
     2.4422   2.4422   7.3061   7.3062   7.3454   7.3455   7.4613   7.4615
     8.7866   8.7867   8.9432   8.9432   9.3316   9.3318   9.8325   9.8325
    10.0970  10.0971  10.1878  10.1878  10.4051  10.4051  10.7547  10.7547
    11.2036  11.2037

          k =-0.0718 0.0000 0.0127 ( 81916 PWs)   bands (ev):

   -56.2560 -56.2559 -56.2559 -56.2559 -56.2530 -56.2530 -56.2530 -56.2530
   -56.2383 -56.2383 -56.2383 -56.2383 -56.2335 -56.2334 -56.2334 -56.2334
   -56.2310 -56.2310 -56.2310 -56.2310 -56.2166 -56.2166 -56.2165 -56.2165
   -56.2046 -56.2046 -56.2044 -56.2044 -56.2009 -56.2009 -56.2008 -56.2008
   -56.1910 -56.1909 -56.1909 -56.1909 -56.1880 -56.1880 -56.1880 -56.1880
   -56.1720 -56.1720 -56.1719 -56.1718 -56.1710 -56.1710 -56.1709 -56.1709
   -56.1709 -56.1709 -56.1709 -56.1708 -56.1651 -56.1651 -56.1650 -56.1650
   -56.1621 -56.1621 -56.1620 -56.1620 -46.8865 -46.8862 -42.0414 -42.0414
   -41.7723 -41.7723 -41.7438 -41.7437 -20.7184 -20.7182 -20.7135 -20.7133
   -20.7132 -20.7130 -10.5209 -10.4654 -10.3388 -10.3159 -10.3117 -10.2870
   -10.2802 -10.2618 -10.2029 -10.1719 -10.1528 -10.1421  -0.0789   0.1098
     0.2531   0.3135   0.3845   0.4342   0.4741   0.5474   0.5545   0.6163
     0.7275   0.9462   0.9702   1.1416   1.2473   1.3226   1.3832   1.4673
     1.5305   1.7008   1.7090   1.7478   1.7878   1.8100   1.8626   2.0081
     2.0348   2.0833   2.1011   2.1082   2.1559   2.2163   2.3382   2.3558
     2.3911   2.4989   7.1867   7.2607   7.2965   7.3004   7.4043   7.4193
     8.6723   8.9302   8.9989   9.0977   9.2051   9.3950   9.4113   9.6344
     9.7699   9.7811   9.9393   9.9740  10.1663  10.2545  10.3176  10.4705
    11.0926  11.2397

          k =-0.0718 0.0000-0.1021 ( 81920 PWs)   bands (ev):

   -56.2560 -56.2559 -56.2559 -56.2559 -56.2530 -56.2530 -56.2530 -56.2530
   -56.2383 -56.2383 -56.2383 -56.2383 -56.2335 -56.2334 -56.2334 -56.2334
   -56.2310 -56.2310 -56.2310 -56.2309 -56.2166 -56.2166 -56.2165 -56.2164
   -56.2046 -56.2046 -56.2044 -56.2044 -56.2009 -56.2009 -56.2008 -56.2008
   -56.1910 -56.1909 -56.1909 -56.1909 -56.1880 -56.1880 -56.1880 -56.1880
   -56.1720 -56.1720 -56.1719 -56.1718 -56.1710 -56.1710 -56.1709 -56.1709
   -56.1709 -56.1709 -56.1709 -56.1708 -56.1651 -56.1651 -56.1650 -56.1650
   -56.1621 -56.1621 -56.1620 -56.1620 -46.8865 -46.8862 -42.0414 -42.0414
   -41.7723 -41.7723 -41.7438 -41.7437 -20.7184 -20.7182 -20.7136 -20.7133
   -20.7132 -20.7130 -10.4653 -10.4653 -10.3354 -10.3354 -10.3045 -10.3045
   -10.2588 -10.2588 -10.2095 -10.2095 -10.1537 -10.1537  -0.0635  -0.0634
     0.2003   0.2004   0.3357   0.3358   0.4035   0.4036   0.6221   0.6221
     0.8751   0.8751   1.1911   1.1911   1.3145   1.3145   1.5863   1.5863
     1.6592   1.6592   1.7152   1.7152   1.8387   1.8388   1.8658   1.8659
     2.0635   2.0635   2.1151   2.1152   2.3000   2.3000   2.3291   2.3291
     2.4772   2.4773   7.1819   7.1820   7.2533   7.2535   7.3015   7.3016
     8.6658   8.6659   9.0537   9.0538   9.2155   9.2156   9.3578   9.3579
     9.6041   9.6041   9.7904   9.7904  10.1254  10.1254  10.4395  10.4396
    11.0694  11.0694

          k =-0.0718-0.0417-0.0255 ( 81848 PWs)   bands (ev):

   -56.2559 -56.2559 -56.2559 -56.2559 -56.2530 -56.2530 -56.2530 -56.2530
   -56.2383 -56.2383 -56.2383 -56.2383 -56.2334 -56.2334 -56.2334 -56.2334
   -56.2310 -56.2310 -56.2310 -56.2310 -56.2166 -56.2166 -56.2165 -56.2165
   -56.2046 -56.2046 -56.2044 -56.2044 -56.2009 -56.2009 -56.2008 -56.2008
   -56.1910 -56.1909 -56.1909 -56.1909 -56.1880 -56.1880 -56.1880 -56.1880
   -56.1720 -56.1720 -56.1719 -56.1718 -56.1710 -56.1710 -56.1709 -56.1709
   -56.1709 -56.1709 -56.1709 -56.1708 -56.1651 -56.1651 -56.1650 -56.1650
   -56.1621 -56.1621 -56.1620 -56.1620 -46.8865 -46.8862 -42.0414 -42.0414
   -41.7723 -41.7723 -41.7438 -41.7437 -20.7184 -20.7182 -20.7135 -20.7133
   -20.7132 -20.7130 -10.5122 -10.5122 -10.3730 -10.3729 -10.2703 -10.2702
   -10.2358 -10.2358 -10.1966 -10.1966 -10.1361 -10.1361   0.0301   0.0302
     0.2740   0.2740   0.4918   0.4918   0.6578   0.6578   0.6692   0.6693
     0.9335   0.9335   0.9958   0.9958   1.2158   1.2158   1.3428   1.3428
     1.5134   1.5134   1.5285   1.5285   1.8192   1.8193   1.8570   1.8571
     2.0158   2.0158   2.0990   2.0990   2.1740   2.1740   2.3335   2.3335
     2.4551   2.4551   7.2548   7.2548   7.3906   7.3907   7.5153   7.5154
     8.6452   8.6453   9.3852   9.3854   9.4930   9.4930   9.7700   9.7701
     9.7929   9.7929  10.1148  10.1148  10.6515  10.6515  10.8290  10.8290
    10.9874  10.9874

          k =-0.0718-0.0417 0.0127 ( 81930 PWs)   bands (ev):

   -56.2560 -56.2559 -56.2559 -56.2559 -56.2530 -56.2530 -56.2530 -56.2530
   -56.2383 -56.2383 -56.2383 -56.2383 -56.2335 -56.2334 -56.2334 -56.2334
   -56.2310 -56.2310 -56.2310 -56.2310 -56.2166 -56.2166 -56.2165 -56.2164
   -56.2046 -56.2046 -56.2044 -56.2044 -56.2009 -56.2009 -56.2008 -56.2008
   -56.1910 -56.1909 -56.1909 -56.1909 -56.1880 -56.1880 -56.1880 -56.1880
   -56.1720 -56.1720 -56.1719 -56.1718 -56.1710 -56.1710 -56.1709 -56.1709
   -56.1709 -56.1709 -56.1709 -56.1708 -56.1651 -56.1651 -56.1650 -56.1650
   -56.1621 -56.1621 -56.1620 -56.1620 -46.8865 -46.8862 -42.0414 -42.0414
   -41.7723 -41.7723 -41.7438 -41.7437 -20.7184 -20.7182 -20.7135 -20.7133
   -20.7132 -20.7130 -10.4889 -10.4889 -10.3584 -10.3584 -10.2955 -10.2955
   -10.2357 -10.2357 -10.1995 -10.1995 -10.1476 -10.1476  -0.0940  -0.0940
     0.3079   0.3079   0.4108   0.4108   0.5187   0.5188   0.6593   0.6593
     0.9618   0.9619   1.0856   1.0856   1.2146   1.2146   1.4976   1.4976
     1.5478   1.5479   1.6439   1.6440   1.7668   1.7669   1.9704   1.9704
     2.0720   2.0720   2.1133   2.1134   2.1736   2.1736   2.2864   2.2864
     2.4628   2.4628   7.1692   7.1693   7.3792   7.3792   7.4405   7.4407
     8.7938   8.7939   9.0002   9.0003   9.2256   9.2256   9.5247   9.5248
     9.7749   9.7750  10.2404  10.2405  10.5960  10.5960  10.8190  10.8190
    10.9096  10.9097

          k =-0.0718-0.0417-0.1021 ( 81840 PWs)   bands (ev):

   -56.2559 -56.2559 -56.2559 -56.2559 -56.2530 -56.2530 -56.2530 -56.2530
   -56.2383 -56.2383 -56.2383 -56.2383 -56.2335 -56.2334 -56.2334 -56.2334
   -56.2310 -56.2310 -56.2310 -56.2309 -56.2166 -56.2166 -56.2165 -56.2164
   -56.2046 -56.2046 -56.2044 -56.2044 -56.2009 -56.2009 -56.2008 -56.2007
   -56.1910 -56.1909 -56.1909 -56.1909 -56.1880 -56.1880 -56.1880 -56.1880
   -56.1720 -56.1720 -56.1719 -56.1718 -56.1710 -56.1710 -56.1709 -56.1709
   -56.1709 -56.1709 -56.1709 -56.1708 -56.1651 -56.1651 -56.1650 -56.1650
   -56.1621 -56.1621 -56.1620 -56.1620 -46.8865 -46.8862 -42.0414 -42.0414
   -41.7723 -41.7723 -41.7438 -41.7437 -20.7184 -20.7182 -20.7136 -20.7134
   -20.7132 -20.7130 -10.4510 -10.4510 -10.3695 -10.3694 -10.3095 -10.3095
   -10.2306 -10.2306 -10.1990 -10.1990 -10.1677 -10.1677  -0.1926  -0.1925
     0.2564   0.2564   0.3430   0.3430   0.5076   0.5077   0.7006   0.7006
     0.9711   0.9711   1.1271   1.1272   1.2283   1.2283   1.5358   1.5358
     1.5668   1.5668   1.7015   1.7015   1.7596   1.7596   2.0045   2.0046
     2.1334   2.1335   2.1569   2.1569   2.2917   2.2917   2.3278   2.3279
     2.3878   2.3878   7.0622   7.0622   7.3324   7.3325   7.3893   7.3893
     8.7165   8.7166   8.8145   8.8145   9.1797   9.1797   9.2897   9.2898
     9.7806   9.7806  10.2059  10.2060  10.6429  10.6429  10.8100  10.8101
    10.9015  10.9015

     the Fermi energy is     4.8834 ev

!    total energy              =   -6740.56229475 Ry

     total all-electron energy =   -114993.578253 Ry
     estimated scf accuracy    <          9.0E-09 Ry
     smearing contrib. (-TS)   =      -0.00000000 Ry
     internal energy E=F+TS    =   -6740.56229475 Ry

     The total energy is F=E-TS. E is the sum of the following terms:
     one-electron contribution =   -3514.54190038 Ry
     hartree contribution      =    1687.46686867 Ry
     xc contribution           =    -503.23541288 Ry
     ewald contribution        =   -1691.47752998 Ry
     one-center paw contrib.   =   -2718.77432017 Ry

     convergence has been achieved in  10 iterations

     Forces acting on atoms (cartesian axes, Ry/au):

     atom    1 type  1   force =     0.00000000   -0.00196656    0.00000000
     atom    2 type  1   force =     0.00000000    0.00044979    0.00000000
     atom    3 type  1   force =     0.00000000   -0.00033063    0.00000000
     atom    4 type  1   force =     0.00000000   -0.00196857    0.00000000
     atom    5 type  1   force =     0.00000000    0.00045472    0.00000000
     atom    6 type  1   force =     0.00000000   -0.00033469    0.00000000
     atom    7 type  2   force =     0.00000000    0.00058788    0.00000000
     atom    8 type  2   force =     0.00000000    0.00058315    0.00000000
     atom    9 type  3   force =     0.00060864    0.00103039    0.00311212
     atom   10 type  3   force =     0.00252206   -0.00169521    0.00060003
     atom   11 type  3   force =    -0.00252206   -0.00169521   -0.00060003
     atom   12 type  3   force =    -0.00060864    0.00103039   -0.00311212
     atom   13 type  3   force =    -0.00222716    0.00126943    0.00247064
     atom   14 type  3   force =     0.00222716    0.00126943   -0.00247064
     atom   15 type  3   force =     0.00058522    0.00098640    0.00308926
[...]
     8.1663   8.7725   8.9962   9.0767   9.2420   9.3335   9.5320   9.5898
     9.6754   9.8162   9.8689  10.0134  10.0317  10.2888  10.3031  10.3466
    10.8756  11.2855

          k = 0.0360-0.0418 0.0126 ( 81604 PWs)   bands (ev):

   -56.2551 -56.2550 -56.2550 -56.2550 -56.2519 -56.2519 -56.2518 -56.2518
   -56.2395 -56.2395 -56.2395 -56.2395 -56.2339 -56.2339 -56.2339 -56.2338
   -56.2322 -56.2322 -56.2322 -56.2322 -56.2185 -56.2185 -56.2184 -56.2184
   -56.2176 -56.2175 -56.2175 -56.2175 -56.2155 -56.2155 -56.2155 -56.2155
   -56.2061 -56.2061 -56.2061 -56.2061 -56.2029 -56.2028 -56.2028 -56.2028
   -56.2001 -56.2001 -56.2000 -56.2000 -56.1944 -56.1944 -56.1944 -56.1944
   -56.1919 -56.1919 -56.1919 -56.1919 -56.1762 -56.1762 -56.1761 -56.1761
   -56.1751 -56.1751 -56.1751 -56.1751 -46.8270 -46.8270 -41.9849 -41.9848
   -41.7539 -41.7539 -41.7151 -41.7151 -20.6699 -20.6699 -20.6663 -20.6663
   -20.6650 -20.6650 -10.6152 -10.6152 -10.3175 -10.3175 -10.2989 -10.2989
   -10.2475 -10.2475 -10.1957 -10.1956 -10.1610 -10.1609  -0.0344  -0.0344
     0.2221   0.2221   0.2978   0.2978   0.5209   0.5209   0.5880   0.5880
     0.8931   0.8931   1.0510   1.0510   1.2553   1.2554   1.3787   1.3787
     1.4972   1.4972   1.6683   1.6683   1.7256   1.7257   1.8832   1.8832
     2.0347   2.0347   2.1376   2.1376   2.3126   2.3126   2.3574   2.3574
     2.4345   2.4346   7.3935   7.3935   7.4431   7.4431   7.4706   7.4706
     8.4864   8.4864   9.0999   9.0999   9.2099   9.2099   9.6470   9.6470
     9.9349   9.9349  10.2349  10.2349  10.4341  10.4342  10.6035  10.6035
    11.0873  11.0874

          k = 0.0359-0.0418 0.0507 ( 81680 PWs)   bands (ev):

   -56.2551 -56.2550 -56.2550 -56.2550 -56.2519 -56.2519 -56.2518 -56.2518
   -56.2395 -56.2395 -56.2395 -56.2395 -56.2339 -56.2339 -56.2339 -56.2338
   -56.2322 -56.2322 -56.2322 -56.2322 -56.2185 -56.2185 -56.2184 -56.2184
   -56.2176 -56.2175 -56.2175 -56.2175 -56.2155 -56.2155 -56.2155 -56.2155
   -56.2061 -56.2061 -56.2061 -56.2061 -56.2029 -56.2028 -56.2028 -56.2028
   -56.2000 -56.2000 -56.2000 -56.2000 -56.1944 -56.1944 -56.1944 -56.1944
   -56.1919 -56.1919 -56.1919 -56.1919 -56.1762 -56.1762 -56.1761 -56.1761
   -56.1751 -56.1751 -56.1751 -56.1751 -46.8270 -46.8270 -41.9849 -41.9848
   -41.7539 -41.7539 -41.7151 -41.7151 -20.6700 -20.6700 -20.6663 -20.6663
   -20.6650 -20.6650 -10.5626 -10.5625 -10.3398 -10.3398 -10.3146 -10.3146
   -10.2489 -10.2489 -10.2184 -10.2184 -10.1577 -10.1577   0.0167   0.0167
     0.2821   0.2821   0.4022   0.4022   0.5664   0.5665   0.6726   0.6726
     0.8405   0.8405   0.9962   0.9962   1.1771   1.1771   1.4748   1.4748
     1.5417   1.5417   1.6105   1.6105   1.6879   1.6879   1.8173   1.8173
     1.9681   1.9681   2.1189   2.1189   2.2216   2.2216   2.3135   2.3135
     2.3595   2.3595   7.3410   7.3410   7.4209   7.4209   7.5246   7.5246
     8.6403   8.6403   9.1727   9.1727   9.5607   9.5607   9.8508   9.8508
     9.9378   9.9378  10.1604  10.1604  10.3185  10.3185  10.7178  10.7179
    11.1703  11.1703

          k = 0.0362-0.0418-0.0635 ( 81702 PWs)   bands (ev):

   -56.2551 -56.2550 -56.2550 -56.2550 -56.2519 -56.2519 -56.2518 -56.2518
   -56.2395 -56.2395 -56.2395 -56.2395 -56.2339 -56.2339 -56.2339 -56.2338
   -56.2322 -56.2322 -56.2322 -56.2322 -56.2185 -56.2185 -56.2184 -56.2184
   -56.2176 -56.2175 -56.2175 -56.2175 -56.2155 -56.2155 -56.2155 -56.2155
   -56.2061 -56.2061 -56.2061 -56.2061 -56.2029 -56.2028 -56.2028 -56.2028
   -56.2001 -56.2001 -56.2000 -56.2000 -56.1944 -56.1944 -56.1944 -56.1944
   -56.1919 -56.1919 -56.1919 -56.1919 -56.1762 -56.1762 -56.1761 -56.1761
   -56.1751 -56.1751 -56.1751 -56.1751 -46.8270 -46.8270 -41.9849 -41.9848
   -41.7539 -41.7539 -41.7151 -41.7151 -20.6700 -20.6700 -20.6663 -20.6663
   -20.6651 -20.6650 -10.5342 -10.5342 -10.3605 -10.3605 -10.3162 -10.3162
   -10.2387 -10.2387 -10.2152 -10.2152 -10.1789 -10.1789  -0.1050  -0.1050
     0.2968   0.2968   0.3313   0.3313   0.5334   0.5334   0.6260   0.6260
     0.8689   0.8689   1.1189   1.1189   1.2550   1.2550   1.4508   1.4508
     1.5524   1.5524   1.6274   1.6274   1.7711   1.7711   1.8962   1.8962
     2.0191   2.0191   2.1039   2.1039   2.1678   2.1678   2.2950   2.2950
     2.4340   2.4340   7.2274   7.2275   7.3910   7.3910   7.4551   7.4551
     8.7704   8.7704   9.1044   9.1044   9.3761   9.3761   9.5147   9.5147
     9.7319   9.7319  10.2956  10.2956  10.5902  10.5902  10.7304  10.7304
    10.9778  10.9778

          k = 0.0361-0.0418-0.0255 ( 81656 PWs)   bands (ev):

   -56.2551 -56.2550 -56.2550 -56.2550 -56.2519 -56.2519 -56.2518 -56.2518
   -56.2395 -56.2395 -56.2395 -56.2395 -56.2339 -56.2339 -56.2339 -56.2338
   -56.2322 -56.2322 -56.2322 -56.2322 -56.2185 -56.2185 -56.2184 -56.2184
   -56.2176 -56.2175 -56.2175 -56.2175 -56.2155 -56.2155 -56.2155 -56.2155
   -56.2061 -56.2061 -56.2061 -56.2061 -56.2029 -56.2028 -56.2028 -56.2028
   -56.2001 -56.2001 -56.2000 -56.2000 -56.1944 -56.1944 -56.1944 -56.1944
   -56.1919 -56.1919 -56.1919 -56.1919 -56.1762 -56.1762 -56.1761 -56.1761
   -56.1751 -56.1751 -56.1751 -56.1751 -46.8270 -46.8270 -41.9849 -41.9848
   -41.7539 -41.7539 -41.7151 -41.7151 -20.6700 -20.6699 -20.6664 -20.6663
   -20.6650 -20.6650 -10.5973 -10.5973 -10.3260 -10.3259 -10.2937 -10.2937
   -10.2315 -10.2315 -10.2130 -10.2130 -10.1760 -10.1760  -0.1215  -0.1215
     0.2083   0.2084   0.2995   0.2996   0.4169   0.4169   0.4956   0.4956
     0.9549   0.9549   1.1584   1.1584   1.3569   1.3569   1.4958   1.4958
     1.5257   1.5257   1.6258   1.6258   1.7318   1.7318   1.9269   1.9269
     2.0187   2.0187   2.1110   2.1110   2.3402   2.3402   2.4059   2.4059
     2.4501   2.4502   7.2871   7.2871   7.3489   7.3489   7.4436   7.4436
     8.6061   8.6061   8.9251   8.9251   9.1903   9.1903   9.6418   9.6418
     9.7809   9.7810  10.1225  10.1225  10.2778  10.2778  10.3570  10.3570
    11.0717  11.0717

          k =-0.0719 0.0000-0.0252 ( 81632 PWs)   bands (ev):

   -56.2550 -56.2550 -56.2550 -56.2550 -56.2519 -56.2519 -56.2518 -56.2518
   -56.2395 -56.2395 -56.2395 -56.2395 -56.2339 -56.2339 -56.2339 -56.2338
   -56.2322 -56.2322 -56.2322 -56.2322 -56.2185 -56.2185 -56.2184 -56.2184
   -56.2176 -56.2175 -56.2175 -56.2175 -56.2155 -56.2155 -56.2155 -56.2155
   -56.2061 -56.2061 -56.2061 -56.2061 -56.2029 -56.2028 -56.2028 -56.2028
   -56.2001 -56.2001 -56.2000 -56.2000 -56.1944 -56.1944 -56.1944 -56.1944
   -56.1919 -56.1919 -56.1919 -56.1919 -56.1762 -56.1762 -56.1761 -56.1761
   -56.1751 -56.1751 -56.1751 -56.1751 -46.8270 -46.8270 -41.9849 -41.9848
   -41.7539 -41.7539 -41.7151 -41.7151 -20.6699 -20.6699 -20.6663 -20.6663
   -20.6651 -20.6651 -10.5459 -10.5459 -10.3456 -10.3456 -10.3181 -10.3181
   -10.2713 -10.2712 -10.2088 -10.2088 -10.1528 -10.1528   0.0420   0.0420
     0.3710   0.3710   0.4250   0.4250   0.4832   0.4832   0.7122   0.7122
     0.8162   0.8162   1.0180   1.0180   1.1190   1.1190   1.1361   1.1362
     1.6105   1.6105   1.6633   1.6633   1.7199   1.7199   1.8539   1.8539
     2.0598   2.0598   2.0845   2.0846   2.1984   2.1984   2.3773   2.3773
     2.4152   2.4152   7.3292   7.3292   7.3705   7.3705   7.4772   7.4772
     8.8343   8.8343   8.9599   8.9599   9.3887   9.3887   9.8249   9.8249
    10.1317  10.1317  10.2071  10.2071  10.4427  10.4427  10.8234  10.8234
    11.1683  11.1683

          k =-0.0720 0.0000 0.0128 ( 81666 PWs)   bands (ev):

   -56.2551 -56.2550 -56.2550 -56.2550 -56.2519 -56.2519 -56.2518 -56.2518
   -56.2395 -56.2395 -56.2395 -56.2395 -56.2339 -56.2339 -56.2339 -56.2338
   -56.2322 -56.2322 -56.2322 -56.2322 -56.2185 -56.2185 -56.2184 -56.2184
   -56.2176 -56.2175 -56.2175 -56.2175 -56.2155 -56.2155 -56.2155 -56.2155
   -56.2061 -56.2061 -56.2061 -56.2061 -56.2029 -56.2028 -56.2028 -56.2028
   -56.2001 -56.2001 -56.2000 -56.2000 -56.1944 -56.1944 -56.1944 -56.1944
   -56.1919 -56.1919 -56.1919 -56.1919 -56.1762 -56.1762 -56.1761 -56.1761
   -56.1751 -56.1751 -56.1751 -56.1751 -46.8270 -46.8270 -41.9849 -41.9848
   -41.7539 -41.7539 -41.7151 -41.7151 -20.6700 -20.6699 -20.6663 -20.6663
   -20.6651 -20.6651 -10.5466 -10.4944 -10.3498 -10.3297 -10.3195 -10.3137
   -10.2993 -10.2726 -10.2340 -10.2073 -10.1614 -10.1600  -0.1039   0.0925
     0.2465   0.2894   0.3530   0.4022   0.4501   0.5300   0.5403   0.5800
     0.7091   0.9123   0.9449   1.1103   1.2271   1.3059   1.3643   1.4344
     1.5290   1.6706   1.6964   1.7407   1.7736   1.7897   1.8533   1.9937
     2.0387   2.0466   2.0821   2.0874   2.1585   2.1960   2.3194   2.3478
     2.3752   2.4644   7.1990   7.3015   7.3189   7.3250   7.4309   7.4425
     8.7018   8.9691   9.0275   9.1227   9.2273   9.4352   9.4713   9.6734
     9.7823   9.8150   9.9663   9.9817  10.2091  10.2771  10.3754  10.5353
    11.0522  11.1934

          k =-0.0717 0.0000-0.1014 ( 81694 PWs)   bands (ev):

   -56.2551 -56.2550 -56.2550 -56.2550 -56.2519 -56.2519 -56.2518 -56.2518
   -56.2395 -56.2395 -56.2395 -56.2395 -56.2339 -56.2339 -56.2338 -56.2338
   -56.2322 -56.2322 -56.2322 -56.2322 -56.2185 -56.2185 -56.2184 -56.2184
   -56.2176 -56.2175 -56.2175 -56.2175 -56.2155 -56.2155 -56.2155 -56.2155
   -56.2061 -56.2061 -56.2061 -56.2061 -56.2029 -56.2028 -56.2028 -56.2028
   -56.2001 -56.2001 -56.2000 -56.2000 -56.1944 -56.1944 -56.1944 -56.1944
   -56.1919 -56.1919 -56.1919 -56.1919 -56.1762 -56.1762 -56.1761 -56.1761
   -56.1751 -56.1751 -56.1751 -56.1751 -46.8270 -46.8270 -41.9849 -41.9848
   -41.7539 -41.7539 -41.7151 -41.7151 -20.6700 -20.6700 -20.6663 -20.6663
   -20.6652 -20.6651 -10.4946 -10.4946 -10.3473 -10.3473 -10.3147 -10.3147
   -10.2809 -10.2809 -10.2383 -10.2382 -10.1703 -10.1703  -0.0741  -0.0740
     0.1880   0.1880   0.2984   0.2984   0.3926   0.3926   0.6141   0.6141
     0.8419   0.8419   1.1423   1.1423   1.3034   1.3034   1.5699   1.5699
     1.6362   1.6362   1.6926   1.6926   1.8103   1.8103   1.8775   1.8775
     2.0609   2.0609   2.0844   2.0844   2.2569   2.2569   2.3170   2.3170
     2.4460   2.4460   7.2141   7.2141   7.2843   7.2844   7.3239   7.3239
     8.6948   8.6948   9.0986   9.0987   9.2096   9.2096   9.4231   9.4231
     9.6387   9.6387   9.8204   9.8204  10.1632  10.1632  10.5039  10.5039
    11.0600  11.0601

          k =-0.0719-0.0418-0.0252 ( 81596 PWs)   bands (ev):

   -56.2550 -56.2550 -56.2550 -56.2550 -56.2519 -56.2519 -56.2518 -56.2518
   -56.2395 -56.2395 -56.2395 -56.2395 -56.2339 -56.2339 -56.2339 -56.2338
   -56.2322 -56.2322 -56.2322 -56.2322 -56.2185 -56.2185 -56.2184 -56.2184
   -56.2176 -56.2175 -56.2175 -56.2175 -56.2155 -56.2155 -56.2155 -56.2155
   -56.2061 -56.2061 -56.2061 -56.2061 -56.2029 -56.2028 -56.2028 -56.2028
   -56.2000 -56.2000 -56.2000 -56.2000 -56.1944 -56.1944 -56.1944 -56.1944
   -56.1919 -56.1919 -56.1919 -56.1919 -56.1762 -56.1762 -56.1761 -56.1761
   -56.1751 -56.1751 -56.1751 -56.1751 -46.8270 -46.8270 -41.9849 -41.9848
   -41.7539 -41.7539 -41.7151 -41.7151 -20.6699 -20.6699 -20.6663 -20.6663
   -20.6651 -20.6651 -10.5386 -10.5385 -10.3869 -10.3869 -10.2805 -10.2805
   -10.2649 -10.2648 -10.2160 -10.2160 -10.1556 -10.1556  -0.0023  -0.0023
     0.2378   0.2379   0.4781   0.4781   0.6286   0.6286   0.6419   0.6419
     0.8901   0.8901   0.9884   0.9884   1.1967   1.1967   1.3257   1.3257
     1.4941   1.4942   1.5055   1.5055   1.8267   1.8267   1.8477   1.8477
     1.9911   1.9911   2.1038   2.1038   2.1719   2.1719   2.3250   2.3250
     2.4224   2.4224   7.2767   7.2767   7.4119   7.4119   7.5347   7.5347
     8.6900   8.6900   9.4287   9.4287   9.5070   9.5070   9.7950   9.7950
     9.8144   9.8144  10.1417  10.1417  10.6618  10.6618  10.8078  10.8078
    11.0454  11.0454

          k =-0.0720-0.0418 0.0128 ( 81696 PWs)   bands (ev):

   -56.2551 -56.2550 -56.2550 -56.2550 -56.2519 -56.2519 -56.2518 -56.2518
   -56.2395 -56.2395 -56.2395 -56.2395 -56.2339 -56.2339 -56.2339 -56.2338
   -56.2322 -56.2322 -56.2322 -56.2322 -56.2185 -56.2185 -56.2184 -56.2184
   -56.2176 -56.2175 -56.2175 -56.2175 -56.2155 -56.2155 -56.2155 -56.2155
   -56.2061 -56.2061 -56.2061 -56.2061 -56.2029 -56.2028 -56.2028 -56.2028
   -56.2001 -56.2001 -56.2000 -56.2000 -56.1944 -56.1944 -56.1944 -56.1944
   -56.1919 -56.1919 -56.1919 -56.1919 -56.1762 -56.1762 -56.1761 -56.1761
   -56.1751 -56.1751 -56.1751 -56.1751 -46.8270 -46.8270 -41.9849 -41.9848
   -41.7539 -41.7539 -41.7151 -41.7151 -20.6700 -20.6699 -20.6664 -20.6663
   -20.6651 -20.6651 -10.5159 -10.5158 -10.3737 -10.3737 -10.3099 -10.3099
   -10.2563 -10.2563 -10.2206 -10.2206 -10.1678 -10.1678  -0.1146  -0.1146
     0.2843   0.2843   0.3799   0.3799   0.5012   0.5012   0.6427   0.6427
     0.9222   0.9222   1.0681   1.0681   1.1936   1.1936   1.4686   1.4686
     1.5451   1.5452   1.6189   1.6190   1.7600   1.7600   1.9716   1.9716
     2.0434   2.0434   2.0953   2.0954   2.1531   2.1531   2.2724   2.2724
     2.4421   2.4421   7.1954   7.1954   7.4002   7.4002   7.4674   7.4674
     8.8306   8.8306   9.0265   9.0265   9.2569   9.2569   9.5640   9.5640
     9.8079   9.8079  10.2968  10.2968  10.5907  10.5907  10.7937  10.7938
    10.9643  10.9644

          k =-0.0717-0.0418-0.1014 ( 81668 PWs)   bands (ev):

   -56.2551 -56.2550 -56.2550 -56.2550 -56.2519 -56.2519 -56.2518 -56.2518
   -56.2395 -56.2395 -56.2395 -56.2395 -56.2339 -56.2339 -56.2339 -56.2338
   -56.2322 -56.2322 -56.2322 -56.2322 -56.2185 -56.2185 -56.2184 -56.2184
   -56.2176 -56.2175 -56.2175 -56.2175 -56.2155 -56.2155 -56.2155 -56.2155
   -56.2061 -56.2061 -56.2061 -56.2061 -56.2029 -56.2028 -56.2028 -56.2028
   -56.2001 -56.2001 -56.2000 -56.2000 -56.1944 -56.1944 -56.1944 -56.1944
   -56.1919 -56.1919 -56.1919 -56.1919 -56.1762 -56.1762 -56.1761 -56.1761
   -56.1751 -56.1751 -56.1751 -56.1751 -46.8270 -46.8270 -41.9849 -41.9848
   -41.7539 -41.7539 -41.7151 -41.7151 -20.6700 -20.6700 -20.6664 -20.6663
   -20.6652 -20.6651 -10.4815 -10.4814 -10.3842 -10.3842 -10.3206 -10.3206
   -10.2463 -10.2463 -10.2280 -10.2280 -10.1854 -10.1853  -0.2049  -0.2048
     0.2412   0.2412   0.3128   0.3128   0.4902   0.4903   0.6914   0.6914
     0.9439   0.9439   1.0946   1.0946   1.1956   1.1957   1.5116   1.5116
     1.5627   1.5627   1.6977   1.6977   1.7423   1.7423   1.9928   1.9928
     2.1070   2.1070   2.1346   2.1346   2.2312   2.2312   2.3262   2.3262
     2.3651   2.3652   7.0973   7.0973   7.3524   7.3524   7.4194   7.4195
     8.7330   8.7330   8.8468   8.8468   9.2267   9.2267   9.3566   9.3566
     9.7992   9.7992  10.2758  10.2758  10.6410  10.6410  10.8016  10.8016
    10.9025  10.9026

     the Fermi energy is     4.8852 ev

!    total energy              =   -6740.56379907 Ry

     total all-electron energy =   -114993.579757 Ry
     estimated scf accuracy    <          7.8E-11 Ry
     smearing contrib. (-TS)   =      -0.00000000 Ry
     internal energy E=F+TS    =   -6740.56379907 Ry

     The total energy is F=E-TS. E is the sum of the following terms:
     one-electron contribution =   -3526.36826660 Ry
     hartree contribution      =    1693.35004281 Ry
     xc contribution           =    -503.30125348 Ry
     ewald contribution        =   -1685.47265984 Ry
     one-center paw contrib.   =   -2718.77166196 Ry

     convergence has been achieved in  12 iterations

     Forces acting on atoms (cartesian axes, Ry/au):

     atom    1 type  1   force =     0.00000000    0.00000248    0.00000000
     atom    2 type  1   force =     0.00000000   -0.00002268    0.00000000
     atom    3 type  1   force =     0.00000000   -0.00000175    0.00000000
     atom    4 type  1   force =     0.00000000    0.00000257    0.00000000
     atom    5 type  1   force =     0.00000000   -0.00002585    0.00000000
     atom    6 type  1   force =     0.00000000   -0.00000197    0.00000000
     atom    7 type  2   force =     0.00000000    0.00004152    0.00000000
     atom    8 type  2   force =     0.00000000    0.00004427    0.00000000
     atom    9 type  3   force =     0.00002175    0.00001706   -0.00000817
     atom   10 type  3   force =     0.00002622   -0.00000811   -0.00002148
     atom   11 type  3   force =    -0.00002622   -0.00000811    0.00002148
     atom   12 type  3   force =    -0.00002175    0.00001706    0.00000817
     atom   13 type  3   force =     0.00002294   -0.00001940   -0.00004587
     atom   14 type  3   force =    -0.00002294   -0.00001940    0.00004587
     atom   15 type  3   force =     0.00002464    0.00001681   -0.00000457
     atom   16 type  3   force =     0.00002763   -0.00000918   -0.00001742
     atom   17 type  3   force =    -0.00002763   -0.00000918    0.00001742
     atom   18 type  3   force =    -0.00002464    0.00001681    0.00000457
     atom   19 type  3   force =     0.00002467   -0.00001648   -0.00004552
     atom   20 type  3   force =    -0.00002467   -0.00001648    0.00004552

     Total force =     0.000158     Total SCF correction =     0.000017
     SCF correction compared to forces is large: reduce conv_thr to get better values


     Computing stress (Cartesian axis) and pressure

          total   stress  (Ry/bohr**3)                   (kbar)     P=       -0.01
  -0.00000008   0.00000000   0.00000012           -0.01        0.00        0.02
   0.00000000  -0.00000017   0.00000000            0.00       -0.03        0.00
   0.00000012   0.00000000   0.00000009            0.02        0.00        0.01


     Writing output data file ./Li3ErBr6_mp-1222492_conventional_standard_vc-relax.save/
 
     init_run     :     15.12s CPU     15.78s WALL (       2 calls)
     electrons    :   9189.15s CPU   9423.55s WALL (      58 calls)
     update_pot   :     78.64s CPU     79.30s WALL (      56 calls)
     forces       :    203.46s CPU    207.67s WALL (      58 calls)
     stress       :   1209.97s CPU   1229.15s WALL (      58 calls)

     Called by init_run:
     wfcinit      :      9.73s CPU     10.19s WALL (       2 calls)
     potinit      :      1.90s CPU      1.94s WALL (       2 calls)
     hinit0       :      2.49s CPU      2.53s WALL (       2 calls)

     Called by electrons:
     c_bands      :   7645.27s CPU   7816.51s WALL (     597 calls)
     sum_band     :   1310.37s CPU   1344.23s WALL (     597 calls)
     v_of_rho     :     48.85s CPU     49.42s WALL (     649 calls)
     newd         :    122.34s CPU    139.19s WALL (     649 calls)
     PAW_pot      :     69.53s CPU     69.94s WALL (     705 calls)
     mix_rho      :     10.40s CPU     10.64s WALL (     597 calls)

     Called by c_bands:
     init_us_2    :     89.84s CPU     90.58s WALL (   13680 calls)
     cegterg      :   7053.68s CPU   7219.20s WALL (    5970 calls)

     Called by *egterg:
     cdiaghg      :    595.67s CPU    608.30s WALL (   19660 calls)
     h_psi        :   4416.06s CPU   4509.65s WALL (   20300 calls)
     s_psi        :    385.07s CPU    387.10s WALL (   20300 calls)
     g_psi        :     18.68s CPU     18.84s WALL (   14310 calls)

     Called by h_psi:
     h_psi:calbec :    404.58s CPU    407.03s WALL (   20300 calls)
     vloc_psi     :   3584.80s CPU   3644.91s WALL (   20300 calls)
     add_vuspsi   :    385.04s CPU    387.14s WALL (   20300 calls)

     General routines
     calbec       :    670.75s CPU    675.45s WALL (   29730 calls)
     fft          :     40.55s CPU     41.08s WALL (    9777 calls)
     ffts         :      2.75s CPU      2.80s WALL (    1246 calls)
     fftw         :   3806.95s CPU   3869.95s WALL ( 5076418 calls)
     interpolate  :      4.73s CPU      4.81s WALL (     649 calls)
 
     Parallel routines
     fft_scatt_xy :    819.39s CPU    832.97s WALL ( 5087441 calls)
     fft_scatt_yz :   1295.36s CPU   1317.66s WALL ( 5087441 calls)
 
     PWSCF        :      2h58m CPU      3h 3m WALL

 
   This run was terminated on:  19:45:45  26Jul2021            

=------------------------------------------------------------------------------=
   JOB DONE.
=------------------------------------------------------------------------------=
