<UPF version="2.0.1">
  <PP_INFO><![CDATA[
Generated using "atomic" code by A. Dal Corso  v.6.4.1
Author: ADC
Generation date:  4May2019
Pseudopotential type: PAW
Element: Ca
Functional:  SLA  PW   PBX  PBC
    Suggested minimum cutoff for wavefunctions:  45. Ry
    Suggested minimum cutoff for charge density: 274. Ry
    The Pseudo was generated with a Scalar-Relativistic Calculation
    Local Potential by smoothing AE potential with Bessel fncs, cutoff radius:   1.5000
    Pseudopotential contains additional information for GIPAW reconstruction.
    Valence configuration:
    nl pn  l   occ       Rcut    Rcut US       E pseu
    3S  1  0  2.00      1.200      1.300    -3.461153
    4S  2  0  2.00      1.200      1.300    -0.276807
    3P  2  1  6.00      1.400      1.600    -2.058537
    4P  3  1  0.00      1.400      1.600    -0.103087
    Generation configuration:
    3S  1  0  2.00      1.200      1.300    -3.461175
    4S  2  0  2.00      1.200      1.300    -0.276813
    3P  2  1  6.00      1.400      1.600    -2.058558
    4P  3  1  0.00      1.400      1.600    -0.103089
    3D  3  2  0.00      1.200      1.700     0.050000
    3D  3  2  0.00      1.200      1.700     1.000000
    Pseudization used: troullier-martins
]]>
    <PP_INPUTFILE><![CDATA[
 &input
   title='Ca',
   zed=20.,
   rel=1,
   config='[Ar] 4s2 4p0 3d-1',
   iswitch=3,
   dft='PBE'
 /
 &inputp
   lpaw = .true.,
   use_xsd=.FALSE.,
   pseudotype=3,
   file_pseudopw='Ca.pbe-spn-kjpaw_psl.1.0.0.UPF',
   author='ADC',
   lloc=-1,
   rcloc=1.5,
   which_augfun='PSQ',
   rmatch_augfun_nc=.true.,
   nlcc=.true.,
   new_core_ps=.true.,
   rcore=1.0,
   tm=.true.
 /
6
3S  1  0  2.00  0.00  1.20  1.30  0.0
4S  2  0  2.00  0.00  1.20  1.30  0.0
3P  2  1  6.00  0.00  1.40  1.60  0.0
4P  3  1  0.00  0.00  1.40  1.60  0.0
3D  3  2  0.00  0.05  1.20  1.70  0.0
3D  3  2  0.00  1.00  1.20  1.70  0.0
]]></PP_INPUTFILE>
  </PP_INFO>
  <!--
 END OF HUMAN READABLE SECTION 
-->
  <PP_HEADER generated="Generated using &quot;atomic&quot; code by A. Dal Corso  v.6.4.1" author="ADC" date=" 4May2019" comment="" element="Ca" pseudo_type="PAW" relativistic="scalar" is_ultrasoft="true" is_paw="true" is_coulomb="false" has_so="false" has_wfc="true" has_gipaw="true" paw_as_gipaw="true" core_correction="true" functional=" SLA  PW   PBX  PBC" z_valence="1.000000000000e1" total_psenergy="-1.333812857984e2" wfc_cutoff="4.505168386024e1" rho_cutoff="2.739348395925e2" l_max="2" l_max_rho="4" l_local="-1" mesh_size="1169" number_of_wfc="4" number_of_proj="6"/>
  <PP_MESH dx="1.250000000000e-2" mesh="1169" xmin="-7.000000000000e0" rmax="1.000000000000e2" zmesh="2.000000000000e1">
    <PP_R>
      4.559409827772581e-5 4.616760143345111e-5 4.674831837082911e-5 4.733633982806269e-5
      4.793175768470099e-5 4.853466497599545e-5 4.914515590743694e-5 4.976332586947557e-5
      5.038927145242553e-5 5.102309046155773e-5 5.166488193238186e-5 5.231474614612093e-5
      5.297278464538051e-5 5.363910025001484e-5 5.431379707319289e-5 5.499698053766591e-5
      5.568875739224016e-5 5.638923572845663e-5 5.709852499748038e-5 5.781673602720288e-5
      5.854398103955872e-5 5.928037366806064e-5 6.002602897555503e-5 6.078106347220073e-5
      6.154559513367404e-5 6.231974341960248e-5 6.310362929223072e-5 6.389737523532122e-5
      6.470110527329240e-5 6.551494499059800e-5 6.633902155134957e-5 6.717346371918634e-5
      6.801840187739470e-5 6.887396804928084e-5 6.974029591879995e-5 7.061752085144408e-5
      7.150577991539372e-5 7.240521190293477e-5 7.331595735214514e-5 7.423815856885434e-5
      7.517195964887861e-5 7.611750650053660e-5 7.707494686744751e-5 7.804443035161661e-5
      7.902610843681086e-5 8.002013451222821e-5 8.102666389646533e-5 8.204585386178632e-5
      8.307786365869671e-5 8.412285454082705e-5 8.518098979012869e-5 8.625243474238712e-5
      8.733735681305598e-5 8.843592552341605e-5 8.954831252706349e-5 9.067469163673076e-5
      9.181523885144534e-5 9.297013238403006e-5 9.413955268894886e-5 9.532368249050382e-5
      9.652270681138548e-5 9.773681300158334e-5 9.896619076765983e-5 1.002110322023920e-4
      1.014715318147867e-4 1.027478865604730e-4 1.040402958724765e-4 1.053489616923817e-4
      1.066740885018854e-4 1.080158833547477e-4 1.093745559091442e-4 1.107503184604258e-4
      1.121433859742902e-4 1.135539761203703e-4 1.149823093062468e-4 1.164286087118857e-4
      1.178931003245116e-4 1.193760129739187e-4 1.208775783682252e-4 1.223980311300792e-4
      1.239376088333179e-4 1.254965520400899e-4 1.270751043384429e-4 1.286735123803850e-4
      1.302920259204249e-4 1.319308978545961e-4 1.335903842599725e-4 1.352707444346813e-4
      1.369722409384184e-4 1.386951396334744e-4 1.404397097262756e-4 1.422062238094484e-4
      1.439949579044121e-4 1.458061915045084e-4 1.476402076186723e-4 1.494972928156530e-4
      1.513777372687908e-4 1.532818348013572e-4 1.552098829324654e-4 1.571621829235590e-4
      1.591390398254833e-4 1.611407625261513e-4 1.631676637988074e-4 1.652200603508991e-4
      1.672982728735636e-4 1.694026260917356e-4 1.715334488148867e-4 1.736910739884027e-4
      1.758758387456064e-4 1.780880844604365e-4 1.803281568007865e-4 1.825964057825171e-4
      1.848931858241466e-4 1.872188558022290e-4 1.895737791074304e-4 1.919583237013082e-4
      1.943728621738065e-4 1.968177718014742e-4 1.992934346064145e-4 2.018002374159779e-4
      2.043385719232033e-4 2.069088347480218e-4 2.095114274992290e-4 2.121467568372370e-4
      2.148152345376170e-4 2.175172775554385e-4 2.202533080904203e-4 2.230237536529001e-4
      2.258290471306334e-4 2.286696268564337e-4 2.315459366766623e-4 2.344584260205806e-4
      2.374075499705739e-4 2.403937693332593e-4 2.434175507114881e-4 2.464793665772525e-4
      2.495796953455109e-4 2.527190214489407e-4 2.558978354136326e-4 2.591166339357363e-4
      2.623759199590693e-4 2.656762027537038e-4 2.690179979955410e-4 2.724018278468863e-4
      2.758282210380386e-4 2.792977129499050e-4 2.828108456976554e-4 2.863681682154293e-4
      2.899702363421071e-4 2.936176129081626e-4 2.973108678236047e-4 3.010505781670279e-4
      3.048373282757819e-4 3.086717098372751e-4 3.125543219814281e-4 3.164857713742873e-4
      3.204666723128192e-4 3.244976468208943e-4 3.285793247464806e-4 3.327123438600587e-4
      3.368973499542734e-4 3.411349969448413e-4 3.454259469727266e-4 3.497708705076005e-4
      3.541704464526062e-4 3.586253622504350e-4 3.631363139907445e-4 3.677040065189218e-4
      3.723291535462169e-4 3.770124777612638e-4 3.817547109429981e-4 3.865565940750035e-4
      3.914188774612887e-4 3.963423208435247e-4 4.013276935197581e-4 4.063757744646106e-4
      4.114873524510015e-4 4.166632261733905e-4 4.219042043725765e-4 4.272111059620673e-4
      4.325847601560317e-4 4.380260065988714e-4 4.435356954964130e-4 4.491146877487558e-4
      4.547638550847912e-4 4.604840801984070e-4 4.662762568864164e-4 4.721412901882106e-4
      4.780800965271752e-4 4.840936038538846e-4 4.901827517910914e-4 4.963484917805506e-4
      5.025917872316793e-4 5.089136136720934e-4 5.153149589000376e-4 5.217968231387252e-4
      5.283602191926327e-4 5.350061726057464e-4 5.417357218218076e-4 5.485499183465744e-4
      5.554498269121154e-4 5.624365256431832e-4 5.695111062256689e-4 5.766746740771811e-4
      5.839283485197726e-4 5.912732629548309e-4 5.987105650401811e-4 6.062414168694049e-4
      6.138669951534218e-4 6.215884914043547e-4 6.294071121217000e-4 6.373240789808535e-4
      6.453406290239936e-4 6.534580148533739e-4 6.616775048270469e-4 6.700003832570413e-4
      6.784279506100469e-4 6.869615237106072e-4 6.956024359468810e-4 7.043520374789869e-4
      7.132116954499628e-4 7.221827941993940e-4 7.312667354797112e-4 7.404649386752199e-4
      7.497788410238860e-4 7.592098978418973e-4 7.687595827510717e-4 7.784293879091046e-4
      7.882208242427244e-4 7.981354216837810e-4 8.081747294082938e-4 8.183403160785213e-4
      8.286337700880628e-4 8.390566998100478e-4 8.496107338484542e-4 8.602975212925692e-4
      8.711187319746758e-4 8.820760567309582e-4 8.931712076657018e-4 9.044059184188157e-4
      9.157819444367089e-4 9.273010632465942e-4 9.389650747342204e-4 9.507758014251127e-4
      9.627350887693465e-4 9.748448054298997e-4 9.871068435746391e-4 9.995231191719716e-4
      1.012095572290220e-3 1.024826167400763e-3 1.037716893684987e-3 1.050769765345101e-3
      1.063986821918859e-3 1.077370128598239e-3 1.090921776552139e-3 1.104643883253122e-3
      1.118538592808280e-3 1.132608076294249e-3 1.146854532096446e-3 1.161280186252579e-3
      1.175887292800455e-3 1.190678134130194e-3 1.205655021340844e-3 1.220820294601502e-3
      1.236176323516970e-3 1.251725507498007e-3 1.267470276136247e-3 1.283413089583822e-3
      1.299556438937767e-3 1.315902846629266e-3 1.332454866817774e-3 1.349215085790124e-3
      1.366186122364629e-3 1.383370628300279e-3 1.400771288711091e-3 1.418390822485655e-3
      1.436231982711972e-3 1.454297557107624e-3 1.472590368455364e-3 1.491113275044186e-3
      1.509869171115925e-3 1.528860987317505e-3 1.548091691158845e-3 1.567564287476544e-3
      1.587281818903398e-3 1.607247366343803e-3 1.627464049455171e-3 1.647935027135368e-3
      1.668663498016304e-3 1.689652700963728e-3 1.710905915583302e-3 1.732426462733051e-3
      1.754217705042252e-3 1.776283047436848e-3 1.798625937671483e-3 1.821249866868212e-3
      1.844158370062001e-3 1.867355026753081e-3 1.890843461466254e-3 1.914627344317233e-3
      1.938710391586100e-3 1.963096366297991e-3 1.987789078811066e-3 2.012792387411893e-3
      2.038110198918311e-3 2.063746469289877e-3 2.089705204245996e-3 2.115990459891816e-3
      2.142606343352009e-3 2.169557013412518e-3 2.196846681170371e-3 2.224479610691676e-3
      2.252460119677891e-3 2.280792580140470e-3 2.309481419084006e-3 2.338531119197949e-3
      2.367946219557046e-3 2.397731316330574e-3 2.427891063500498e-3 2.458430173588679e-3
      2.489353418393198e-3 2.520665629733969e-3 2.552371700207721e-3 2.584476583952471e-3
      2.616985297421619e-3 2.649902920167790e-3 2.683234595636507e-3 2.716985531969875e-3
      2.751161002820363e-3 2.785766348174820e-3 2.820806975188868e-3 2.856288359031764e-3
      2.892216043741924e-3 2.928595643093178e-3 2.965432841471936e-3 3.002733394765397e-3
      3.040503131260899e-3 3.078747952556612e-3 3.117473834483673e-3 3.156686828039919e-3
      3.196393060335379e-3 3.236598735549628e-3 3.277310135901218e-3 3.318533622629282e-3
      3.360275636987487e-3 3.402542701250510e-3 3.445341419733129e-3 3.488678479822183e-3
      3.532560653021481e-3 3.576994796009861e-3 3.621987851712572e-3 3.667546850386106e-3
      3.713678910716695e-3 3.760391240932621e-3 3.807691139930516e-3 3.855585998415836e-3
      3.904083300057659e-3 3.953190622658034e-3 4.002915639336030e-3 4.053266119726661e-3
      4.104249931194939e-3 4.155875040065128e-3 4.208149512865521e-3 4.261081517588844e-3
      4.314679324968525e-3 4.368951309771019e-3 4.423905952104366e-3 4.479551838743236e-3
      4.535897664470628e-3 4.592952233436445e-3 4.650724460533175e-3 4.709223372788834e-3
      4.768458110777482e-3 4.828437930047444e-3 4.889172202567503e-3 4.950670418191315e-3
      5.012942186140188e-3 5.075997236504555e-3 5.139845421764322e-3 5.204496718328332e-3
      5.269961228093216e-3 5.336249180021810e-3 5.403370931741466e-3 5.471336971162449e-3
      5.540157918116698e-3 5.609844526017187e-3 5.680407683538188e-3 5.751858416316622e-3
      5.824207888674851e-3 5.897467405365129e-3 5.971648413335982e-3 6.046762503520835e-3
      6.122821412649097e-3 6.199837025080064e-3 6.277821374659865e-3 6.356786646601780e-3
      6.436745179390212e-3 6.517709466708586e-3 6.599692159391513e-3 6.682706067401525e-3
      6.766764161830635e-3 6.851879576927123e-3 6.938065612147764e-3 7.025335734235910e-3
      7.113703579325684e-3 7.203182955072664e-3 7.293787842811371e-3 7.385532399739843e-3
      7.478430961131757e-3 7.572498042576335e-3 7.667748342246423e-3 7.764196743195151e-3
      7.861858315681383e-3 7.960748319524519e-3 8.060882206488845e-3 8.162275622697921e-3
      8.264944411079329e-3 8.368904613840128e-3 8.474172474973509e-3 8.580764442796943e-3
      8.688697172522257e-3 8.797987528858076e-3 8.908652588644925e-3 9.020709643523544e-3
      9.134176202636738e-3 9.249069995365213e-3 9.365408974097853e-3 9.483211317036766e-3
      9.602495431037712e-3 9.723279954486184e-3 9.845583760209703e-3 9.969425958426758e-3
      1.009482589973277e-2 1.022180317812371e-2 1.035037763405764e-2 1.048056935755489e-2
      1.061239869133715e-2 1.074588623400603e-2 1.088105284326165e-2 1.101791963916170e-2
      1.115650800742149e-2 1.129683960275554e-2 1.143893635226112e-2 1.158282045884444e-2
      1.172851440468989e-2 1.187604095477291e-2 1.202542316041711e-2 1.217668436289604e-2
      1.232984819708033e-2 1.248493859513069e-2 1.264197979023732e-2 1.280099632040650e-2
      1.296201303229458e-2 1.312505508509037e-2 1.329014795444634e-2 1.345731743645919e-2
      1.362658965170063e-2 1.379799104929866e-2 1.397154841107037e-2 1.414728885570665e-2
      1.432523984300951e-2 1.450542917818277e-2 1.468788501617665e-2 1.487263586608704e-2
      1.505971059561011e-2 1.524913843555296e-2 1.544094898440100e-2 1.563517221294269e-2
      1.583183846895267e-2 1.603097848193354e-2 1.623262336791749e-2 1.643680463432821e-2
      1.664355418490398e-2 1.685290432468272e-2 1.706488776504970e-2 1.727953762884873e-2
      1.749688745555777e-2 1.771697120652944e-2 1.793982327029759e-2 1.816547846795057e-2
      1.839397205857212e-2 1.862533974475065e-2 1.885961767815785e-2 1.909684246519745e-2
      1.933705117272508e-2 1.958028133383995e-2 1.982657095374965e-2 2.007595851570834e-2
      2.032848298702997e-2 2.058418382517694e-2 2.084310098392542e-2 2.110527491960828e-2
      2.137074659743634e-2 2.163955749789937e-2 2.191174962324748e-2 2.218736550405399e-2
      2.246644820586108e-2 2.274904133590868e-2 2.303518904994831e-2 2.332493605914244e-2
      2.361832763705074e-2 2.391540962670421e-2 2.421622844776813e-2 2.452083110379532e-2
      2.482926518957049e-2 2.514157889854705e-2 2.545782103037746e-2 2.577804099853822e-2
      2.610228883805082e-2 2.643061521329988e-2 2.676307142594951e-2 2.709970942295936e-2
      2.744058180470133e-2 2.778574183317859e-2 2.813524344034781e-2 2.848914123654615e-2
      2.884749051902434e-2 2.921034728058680e-2 2.957776821834077e-2 2.994981074255529e-2
      3.032653298563167e-2 3.070799381118690e-2 3.109425282325102e-2 3.148537037558052e-2
      3.188140758108870e-2 3.228242632139460e-2 3.268848925649237e-2 3.309965983454171e-2
      3.351600230178198e-2 3.393758171257074e-2 3.436446393954861e-2 3.479671568393210e-2
      3.523440448593568e-2 3.567759873532514e-2 3.612636768210363e-2 3.658078144733209e-2
      3.704091103408590e-2 3.750682833854910e-2 3.797860616124844e-2 3.845631821842855e-2
      3.894003915357025e-2 3.942984454905384e-2 3.992581093796886e-2 4.042801581607264e-2
      4.093653765389912e-2 4.145145590902002e-2 4.197285103846037e-2 4.250080451126992e-2
      4.303539882125291e-2 4.357671749985792e-2 4.412484512922977e-2 4.467986735542579e-2
      4.524187090179799e-2 4.581094358254391e-2 4.638717431642768e-2 4.697065314067379e-2
      4.756147122503570e-2 4.815972088604110e-2 4.876549560141666e-2 4.937889002469410e-2
      5.000000000000000e-2 5.062892257703173e-2 5.126575602622147e-2 5.191059985409128e-2
      5.256355481880124e-2 5.322472294589296e-2 5.389420754423159e-2 5.457211322214760e-2
      5.525854590378241e-2 5.595361284563907e-2 5.665742265334131e-2 5.737008529860362e-2
      5.809171213641418e-2 5.882241592243456e-2 5.956231083061795e-2 6.031151247104903e-2
      6.107013790800851e-2 6.183830567826426e-2 6.261613580959326e-2 6.340374983953602e-2
      6.420127083438707e-2 6.500882340842456e-2 6.582653374338109e-2 6.665452960816019e-2
      6.749294037880020e-2 6.834189705868981e-2 6.920153229903758e-2 7.007198041959870e-2
      7.095337742966290e-2 7.184586104930625e-2 7.274957073091006e-2 7.366464768095080e-2
      7.459123488206354e-2 7.552947711538367e-2 7.647952098316900e-2 7.744151493170666e-2
      7.841560927450846e-2 7.940195621579720e-2 8.040070987428917e-2 8.141202630727555e-2
      8.243606353500642e-2 8.347298156538216e-2 8.452294241895459e-2 8.558611015424326e-2
      8.666265089336981e-2 8.775273284801493e-2 8.885652634570194e-2 8.997420385641046e-2
      9.110594001952549e-2 9.225191167112506e-2 9.341229787161112e-2 9.458727993368852e-2
      9.577704145069482e-2 9.698176832528775e-2 9.820164879849242e-2 9.943687347911458e-2
      1.006876353735239e-1 1.019541299158108e-1 1.032365549983244e-1 1.045351110025929e-1
      1.058500008306337e-1 1.071814299366580e-1 1.085296063591721e-1 1.098947407534852e-1
      1.112770464246235e-1 1.126767393606604e-1 1.140940382664652e-1 1.155291645978752e-1
      1.169823425962996e-1 1.184537993237571e-1 1.199437646983549e-1 1.214524715302144e-1
      1.229801555578475e-1 1.245270554849916e-1 1.260934130179075e-1 1.276794729031463e-1
      1.292854829657923e-1 1.309116941481851e-1 1.325583605491304e-1 1.342257394636036e-1
      1.359140914229522e-1 1.376236802356054e-1 1.393547730282926e-1 1.411076402877850e-1
      1.428825559031583e-1 1.446797972085881e-1 1.464996450266852e-1 1.483423837123734e-1
      1.502083011973216e-1 1.520976890349333e-1 1.540108424459016e-1 1.559480603643398e-1
      1.579096454844884e-1 1.598959043080137e-1 1.619071471918982e-1 1.639436883969337e-1
      1.660058461368276e-1 1.680939426279215e-1 1.702083041395409e-1 1.723492610449739e-1
      1.745171478730921e-1 1.767123033606237e-1 1.789350705050790e-1 1.811857966183470e-1
      1.834648333809623e-1 1.857725368970552e-1 1.881092677499957e-1 1.904753910587331e-1
      1.928712765348486e-1 1.952972985403227e-1 1.977538361460289e-1 2.002412731909665e-1
      2.027599983422338e-1 2.053104051557606e-1 2.078928921378005e-1 2.105078628071980e-1
      2.131557257584411e-1 2.158368947255022e-1 2.185517886464878e-1 2.213008317290969e-1
      2.240844535169032e-1 2.269030889564754e-1 2.297571784653345e-1 2.326471680007734e-1
      2.355735091295372e-1 2.385366590983801e-1 2.415370809055142e-1 2.445752433729503e-1
      2.476516212197557e-1 2.507666951362281e-1 2.539209518590041e-1 2.571148842471146e-1
      2.603489913589925e-1 2.636237785304545e-1 2.669397574536590e-1 2.702974462570583e-1
      2.736973695863603e-1 2.771400586865012e-1 2.806260514846577e-1 2.841558926742974e-1
      2.877301338002866e-1 2.913493333450740e-1 2.950140568159509e-1 2.987248768334161e-1
      3.024823732206475e-1 3.062871330940993e-1 3.101397509552436e-1 3.140408287834583e-1
      3.179909761300915e-1 3.219908102137032e-1 3.260409560165056e-1 3.301420463820217e-1
      3.342947221139636e-1 3.384996320763637e-1 3.427574332949591e-1 3.470687910598518e-1
      3.514343790294650e-1 3.558548793357998e-1 3.603309826910233e-1 3.648633884953918e-1
      3.694528049465325e-1 3.740999491501043e-1 3.788055472318424e-1 3.835703344510214e-1
      3.883950553153389e-1 3.932804636972445e-1 3.982273229517390e-1 4.032364060356437e-1
      4.083084956283823e-1 4.134443842542737e-1 4.186448744063632e-1 4.239107786718191e-1
      4.292429198588948e-1 4.346421311255001e-1 4.401092561093806e-1 4.456451490599369e-1
      4.512506749717065e-1 4.569267097195164e-1 4.626741401953445e-1 4.684938644468968e-1
      4.743867918179263e-1 4.803538430903256e-1 4.863959506279944e-1 4.925140585225290e-1
      4.987091227407364e-1 5.049821112740027e-1 5.113340042895505e-1 5.177657942835847e-1
      5.242784862363785e-1 5.308730977693006e-1 5.375506593038177e-1 5.443122142225075e-1
      5.511588190320802e-1 5.580915435284682e-1 5.651114709639796e-1 5.722196982165561e-1
      5.794173359611701e-1 5.867055088433607e-1 5.940853556549698e-1 6.015580295120770e-1
      6.091246980351737e-1 6.167865435316133e-1 6.245447631803406e-1 6.324005692189612e-1
      6.403551891331521e-1 6.484098658484568e-1 6.565658579245016e-1 6.648244397516394e-1
      6.731869017500855e-1 6.816545505715382e-1 6.902287093033548e-1 6.989107176752824e-1
      7.077019322687904e-1 7.166037267290475e-1 7.256174919795463e-1 7.347446364394471e-1
      7.439865862436425e-1 7.533447854655896e-1 7.628206963429590e-1 7.724157995061013e-1
      7.821315942094086e-1 7.919695985655716e-1 8.019313497827838e-1 8.120184044049429e-1
      8.222323385548531e-1 8.325747481805072e-1 8.430472493044524e-1 8.536514782762930e-1
      8.643890920283832e-1 8.752617683347145e-1 8.862712060730821e-1 8.974191254905328e-1
      9.087072684721534e-1 9.201373988132536e-1 9.317113024949508e-1 9.434307879632442e-1
      9.552976864115834e-1 9.673138520669909e-1 9.794811624798010e-1 9.918015188170166e-1
      1.004276846159383e0 1.016909093802181e0 1.029700235559802e0 1.042652270074172e0
      1.055767221127031e0 1.069047137956167e0 1.082494095575604e0 1.096110195099824e0
      1.109897564072083e0 1.123858356796831e0 1.137994754676336e0 1.152308966551530e0
      1.166803229047136e0 1.181479806921162e0 1.196340993418758e0 1.211389110630549e0
      1.226626509855469e0 1.242055571968142e0 1.257678707790920e0 1.273498358470555e0
      1.289516995859653e0 1.305737122902900e0 1.322161274028140e0 1.338792015542408e0
      1.355631946032895e0 1.372683696773005e0 1.389949932133485e0 1.407433349998733e0
      1.425136682188366e0 1.443062694884052e0 1.461214189061747e0 1.479594000929349e0
      1.498205002369851e0 1.517050101390098e0 1.536132242575147e0 1.555454407548383e0
      1.575019615437398e0 1.594830923345725e0 1.614891426830536e0 1.635204260386309e0
      1.655772597934616e0 1.676599653320048e0 1.697688680812378e0 1.719042975615061e0
      1.740665874380102e0 1.762560755729427e0 1.784731040782795e0 1.807180193692347e0
      1.829911722183902e0 1.852929178105030e0 1.876236157980050e0 1.899836303571990e0
      1.923733302451607e0 1.947930888573601e0 1.972432842860028e0 1.997242993791097e0
      2.022365218003372e0 2.047803440895490e0 2.073561637241541e0 2.099643831812100e0
      2.126054100003139e0 2.152796568472798e0 2.179875415786175e0 2.207294873068264e0
      2.235059224665043e0 2.263172808812938e0 2.291640018316675e0 2.320465301235649e0
      2.349653161578968e0 2.379208160009185e0 2.409134914554941e0 2.439438101332523e0
      2.470122455276509e0 2.501192770879641e0 2.532653902941933e0 2.564510767329285e0
      2.596768341741575e0 2.629431666490423e0 2.662505845286785e0 2.695996046038379e0
      2.729907501657212e0 2.764245510877224e0 2.799015439082208e0 2.834222719144194e0
      2.869872852272312e0 2.905971408872399e0 2.942524029417373e0 2.979536425328550e0
      3.017014379868103e0 3.054963749042669e0 3.093390462518394e0 3.132300524547446e0
      3.171700014906167e0 3.211595089845098e0 3.251991983050851e0 3.292897006620185e0
      3.334316552046261e0 3.376257091217307e0 3.418725177427911e0 3.461727446402932e0
      3.505270617334393e0 3.549361493931347e0 3.594006965482953e0 3.639214007934987e0
      3.684989684979792e0 3.731341149160046e0 3.778275642986334e0 3.825800500068794e0
      3.873923146263048e0 3.922651100830458e0 3.971991977613067e0 4.021953486223266e0
      4.072543433248407e0 4.123769723470656e0 4.175640361102063e0 4.228163451035300e0
      4.281347200110033e0 4.335199918395245e0 4.389730020487746e0 4.444946026826917e0
      4.500856565026091e0 4.557470371220623e0 4.614796291432894e0 4.672843282954587e0
      4.731620415746208e0 4.791136873854343e0 4.851401956846672e0 4.912425081265003e0
      4.974215782096698e0 5.036783714264456e0 5.100138654134985e0 5.164290501046542e0
      5.229249278855711e0 5.295025137503702e0 5.361628354602228e0 5.429069337039480e0
      5.497358622606180e0 5.566506881642118e0 5.636524918703467e0 5.707423674250952e0
      5.779214226359383e0 5.851907792448595e0 5.925515731036167e0 6.000049543512278e0
      6.075520875936748e0 6.151941520858827e0 6.229323419159773e0 6.307678661918609e0
      6.387019492301452e0 6.467358307474449e0 6.548707660540930e0 6.631080262502833e0
      6.714488984246776e0 6.798946858555256e0 6.884467082142936e0 6.971063017718758e0
      7.058748196073850e0 7.147536318195701e0 7.237441257409057e0 7.328477061543559e0
      7.420657955128830e0 7.513998341617049e0 7.608512805633481e0 7.704216115255446e0
      7.801123224319755e0 7.899249274759373e0 7.998609598969334e0 8.099219722202417e0
      8.201095364995100e0 8.304252445623806e0 8.408707082592272e0 8.514475597150057e0
      8.621574515842717e0 8.730020573094222e0 8.839830713821623e0 8.951022096082834e0
      9.063612093757568e0 9.177618299261999e0 9.293058526297717e0 9.409950812635024e0
      9.528313422931500e0 9.648164851585829e0 9.769523825627548e0 9.892409307643288e0
      1.001684049873959e1 1.014283684154325e1 1.027041802323917e1 1.039960397864653e1
      1.053041489333374e1 1.066287120677230e1 1.079699361553071e1 1.093280307650821e1
      1.107032081020936e1 1.120956830405986e1 1.135056731576391e1 1.149333987670394e1
      1.163790829538311e1 1.178429516091093e1 1.193252334653299e1 1.208261601320484e1
      1.223459661321102e1 1.238848889382952e1 1.254431690104223e1 1.270210498329236e1
      1.286187779528875e1 1.302366030185834e1 1.318747778184696e1 1.335335583206911e1
      1.352132037130765e1 1.369139764436353e1 1.386361422615670e1 1.403799702587848e1
      1.421457329119605e1 1.439337061251017e1 1.457441692726601e1 1.475774052431862e1
      1.494337004835303e1 1.513133450435999e1 1.532166326216823e1 1.551438606103332e1
      1.570953301428471e1 1.590713461403090e1 1.610722173592383e1 1.630982564398342e1
      1.651497799548245e1 1.672271084589325e1 1.693305665389638e1 1.714604828645222e1
      1.736171902393675e1 1.758010256534144e1 1.780123303353896e1 1.802514498061489e1
      1.825187339326644e1 1.848145369826946e1 1.871392176801361e1 1.894931392610778e1
      1.918766695305561e1 1.942901809200244e1 1.967340505455482e1 1.992086602667280e1
      2.017143967463676e1 2.042516515108903e1 2.068208210115144e1 2.094223066862022e1
      2.120565150223823e1 2.147238576204670e1 2.174247512581644e1 2.201596179555995e1
      2.229288850412588e1 2.257329852187578e1 2.285723566344545e1 2.314474429459098e1
      2.343586933912085e1 2.373065628591565e1 2.402915119603547e1 2.433140070991736e1
      2.463745205466284e1 2.494735305141710e1 2.526115212284147e1 2.557889830067921e1
      2.590064123341710e1 2.622643119404303e1 2.655631908790106e1 2.689035646064587e1
      2.722859550629647e1 2.757108907539194e1 2.791789068324930e1 2.826905451832526e1
      2.862463545068359e1 2.898468904056832e1 2.934927154708545e1 2.971843993699341e1
      3.009225189360411e1 3.047076582579641e1 3.085404087714219e1 3.124213693514805e1
      3.163511464061271e1 3.203303539710204e1 3.243596138054395e1 3.284395554894299e1
      3.325708165221809e1 3.367540424216347e1 3.409898868253478e1 3.452790115926272e1
      3.496220869079429e1 3.540197913856497e1 3.584728121760200e1 3.629818450726107e1
      3.675475946209870e1 3.721707742288035e1 3.768521062772807e1 3.815923222340759e1
      3.863921627675749e1 3.912523778626283e1 3.961737269377311e1 4.011569789636895e1
      4.062029125837721e1 4.113123162353712e1 4.164859882732045e1 4.217247370940518e1
      4.270293812630758e1 4.324007496417209e1 4.378396815172230e1 4.433470267337547e1
      4.489236458252092e1 4.545704101496661e1 4.602882020255405e1 4.660779148694441e1
      4.719404533357898e1 4.778767334581388e1 4.838876827923383e1 4.899742405614521e1
      4.961373578025132e1 5.023779975151310e1 5.086971348119556e1 5.150957570710470e1
      5.215748640901520e1 5.281354682429226e1 5.347785946371071e1 5.415052812747181e1
      5.483165792142293e1 5.552135527348026e1 5.621972795025803e1 5.692688507390805e1
      5.764293713916944e1 5.836799603063427e1 5.910217504022960e1 5.984558888491918e1
      6.059835372462892e1 6.136058718039634e1 6.213240835274980e1 6.291393784031783e1
      6.370529775867270e1 6.450661175941192e1 6.531800504947815e1 6.613960441072388e1
      6.697153821972096e1 6.781393646781942e1 6.866693078145963e1 6.953065444273825e1
      7.040524241023478e1 7.129083134009861e1 7.218755960740153e1 7.309556732775997e1
      7.401499637922732e1 7.494599042446360e1 7.588869493318265e1 7.684325720488161e1
      7.780982639185780e1 7.878855352251290e1 7.977959152495245e1 8.078309525088077e1
      8.179922149979635e1 8.282812904349326e1 8.386997865086817e1 8.492493311304210e1
      8.599315726879622e1 8.707481803032787e1 8.817008440933199e1 8.927912754340836e1
      9.040212072280317e1 9.153923941748562e1 9.269066130456492e1 9.385656629605384e1
      9.503713656697903e1 9.623255658384736e1 9.744301313346874e1 9.866869535214141e1
      9.990979475520604e1
      </PP_R>
    <PP_RAB>
      5.699262284715726e-7 5.770950179181389e-7 5.843539796353640e-7 5.917042478507836e-7
      5.991469710587624e-7 6.066833121999431e-7 6.143144488429618e-7 6.220415733684446e-7
      6.298658931553191e-7 6.377886307694716e-7 6.458110241547733e-7 6.539343268265116e-7
      6.621598080672564e-7 6.704887531251855e-7 6.789224634149113e-7 6.874622567208238e-7
      6.961094674030020e-7 7.048654466057078e-7 7.137315624685047e-7 7.227092003400361e-7
      7.317997629944842e-7 7.410046708507582e-7 7.503253621944380e-7 7.597632934025094e-7
      7.693199391709259e-7 7.789967927450311e-7 7.887953661528840e-7 7.987171904415153e-7
      8.087638159161552e-7 8.189368123824751e-7 8.292377693918697e-7 8.396682964898295e-7
      8.502300234674337e-7 8.609246006160106e-7 8.717536989849993e-7 8.827190106430510e-7
      8.938222489424215e-7 9.050651487866848e-7 9.164494669018143e-7 9.279769821106793e-7
      9.396494956109827e-7 9.514688312567074e-7 9.634368358430940e-7 9.755553793952076e-7
      9.878263554601357e-7 1.000251681402853e-6 1.012833298705817e-6 1.025573173272329e-6
      1.038473295733709e-6 1.051535681760338e-6 1.064762372376609e-6 1.078155434279839e-6
      1.091716960163200e-6 1.105449069042701e-6 1.119353906588294e-6 1.133433645459134e-6
      1.147690485643067e-6 1.162126654800376e-6 1.176744408611861e-6 1.191546031131298e-6